n -t 0 -s 0 -S DLABEL -l "src1" -L ""
n -t 0 -s 2 -S DLABEL -l "src2" -L ""
n -t 0 -s 3 -S DLABEL -l "dest2" -L ""
n -t 0 -s 5 -S DLABEL -l "dest1" -L ""
V -t * -v 1.0a5 -a 0
A -t * -n 1 -p 0 -o 0x7fffffff -c 30 -a 1
A -t * -h 1 -m 1073741823 -s 0
n -t * -a 4 -s 4 -S UP -v square -c black -i black
n -t * -a 0 -s 0 -S UP -v circle -c magenta -i magenta
n -t * -a 5 -s 5 -S UP -v circle -c blue -i blue
n -t * -a 1 -s 1 -S UP -v circle -c red -i red
n -t * -a 2 -s 2 -S UP -v circle -c magenta -i magenta
n -t * -a 3 -s 3 -S UP -v circle -c blue -i blue
l -t * -s 4 -d 5 -S UP -r 1000000 -D 0.001 -c black -o right
X -t * -n 6 -r 50Mb -D 100ms -o left
L -t * -s 6 -d 0 -o up
L -t * -s 6 -d 1 -o down
L -t * -s 6 -d 2 -o up
L -t * -s 6 -d 3 -o down
L -t * -s 6 -d 4 -o up
h -t 0.1 -s 0 -d 6 -p tcp -e 40 -c 0 -i 0 -a 0 -x {0.0 5.0 0 ------- null}
h -t 0.2 -s 2 -d 6 -p tcp -e 40 -c 0 -i 1 -a 0 -x {2.0 3.0 0 ------- null}
+ -t 0.2 -s 0 -d 6 -p tcp -e 40 -c 0 -i 0 -a 0 -x {0.0 5.0 0 ------- null}
- -t 0.2 -s 0 -d 6 -p tcp -e 40 -c 0 -i 0 -a 0 -x {0.0 5.0 0 ------- null}
h -t 0.2 -s 0 -d 6 -p tcp -e 40 -c 0 -i 0 -a 0 -x {0.0 5.0 -1 ------- null}
+ -t 0.3 -s 2 -d 6 -p tcp -e 40 -c 0 -i 1 -a 0 -x {2.0 3.0 0 ------- null}
- -t 0.3 -s 2 -d 6 -p tcp -e 40 -c 0 -i 1 -a 0 -x {2.0 3.0 0 ------- null}
h -t 0.3 -s 2 -d 6 -p tcp -e 40 -c 0 -i 1 -a 0 -x {2.0 3.0 -1 ------- null}
r -t 0.30001424 -s 6 -d 4 -p tcp -e 40 -c 0 -i 0 -a 0 -x {0.0 5.0 0 ------- null}
+ -t 0.30001424 -s 4 -d 5 -p tcp -e 40 -c 0 -i 0 -a 0 -x {0.0 5.0 0 ------- null}
- -t 0.30001424 -s 4 -d 5 -p tcp -e 40 -c 0 -i 0 -a 0 -x {0.0 5.0 0 ------- null}
h -t 0.30001424 -s 4 -d 5 -p tcp -e 40 -c 0 -i 0 -a 0 -x {0.0 5.0 -1 ------- null}
r -t 0.30133424 -s 4 -d 5 -p tcp -e 40 -c 0 -i 0 -a 0 -x {0.0 5.0 0 ------- null}
+ -t 0.30133424 -s 5 -d 4 -p ack -e 40 -c 0 -i 2 -a 0 -x {5.0 0.0 0 ------- null}
- -t 0.30133424 -s 5 -d 4 -p ack -e 40 -c 0 -i 2 -a 0 -x {5.0 0.0 0 ------- null}
h -t 0.30133424 -s 5 -d 4 -p ack -e 40 -c 0 -i 2 -a 0 -x {5.0 0.0 -1 ------- null}
r -t 0.30265424 -s 5 -d 4 -p ack -e 40 -c 0 -i 2 -a 0 -x {5.0 0.0 0 ------- null}
h -t 0.30265424 -s 4 -d 6 -p ack -e 40 -c 0 -i 2 -a 0 -x {5.0 0.0 0 ------- null}
r -t 0.40001424 -s 6 -d 3 -p tcp -e 40 -c 0 -i 1 -a 0 -x {2.0 3.0 0 ------- null}
h -t 0.40001424 -s 3 -d 6 -p ack -e 40 -c 0 -i 3 -a 0 -x {3.0 2.0 0 ------- null}
+ -t 0.40265424 -s 4 -d 6 -p ack -e 40 -c 0 -i 2 -a 0 -x {5.0 0.0 0 ------- null}
- -t 0.40265424 -s 4 -d 6 -p ack -e 40 -c 0 -i 2 -a 0 -x {5.0 0.0 0 ------- null}
h -t 0.40265424 -s 4 -d 6 -p ack -e 40 -c 0 -i 2 -a 0 -x {5.0 0.0 -1 ------- null}
+ -t 0.50001424 -s 3 -d 6 -p ack -e 40 -c 0 -i 3 -a 0 -x {3.0 2.0 0 ------- null}
- -t 0.50001424 -s 3 -d 6 -p ack -e 40 -c 0 -i 3 -a 0 -x {3.0 2.0 0 ------- null}
h -t 0.50001424 -s 3 -d 6 -p ack -e 40 -c 0 -i 3 -a 0 -x {3.0 2.0 -1 ------- null}
r -t 0.50266848 -s 6 -d 0 -p ack -e 40 -c 0 -i 2 -a 0 -x {5.0 0.0 0 ------- null}
h -t 0.50266848 -s 0 -d 6 -p tcp -e 1040 -c 0 -i 4 -a 0 -x {0.0 5.0 1 ------- null}
h -t 0.50266848 -s 0 -d 6 -p tcp -e 1040 -c 0 -i 5 -a 0 -x {0.0 5.0 2 ------- null}
r -t 0.60002848 -s 6 -d 2 -p ack -e 40 -c 0 -i 3 -a 0 -x {3.0 2.0 0 ------- null}
h -t 0.60002848 -s 2 -d 6 -p tcp -e 1040 -c 0 -i 6 -a 0 -x {2.0 3.0 1 ------- null}
h -t 0.60002848 -s 2 -d 6 -p tcp -e 1040 -c 0 -i 7 -a 0 -x {2.0 3.0 2 ------- null}
+ -t 0.60266848 -s 0 -d 6 -p tcp -e 1040 -c 0 -i 4 -a 0 -x {0.0 5.0 1 ------- null}
- -t 0.60266848 -s 0 -d 6 -p tcp -e 1040 -c 0 -i 4 -a 0 -x {0.0 5.0 1 ------- null}
h -t 0.60266848 -s 0 -d 6 -p tcp -e 1040 -c 0 -i 4 -a 0 -x {0.0 5.0 -1 ------- null}
+ -t 0.60266848 -s 0 -d 6 -p tcp -e 1040 -c 0 -i 5 -a 0 -x {0.0 5.0 2 ------- null}
- -t 0.60283904 -s 0 -d 6 -p tcp -e 1040 -c 0 -i 5 -a 0 -x {0.0 5.0 2 ------- null}
h -t 0.60283904 -s 0 -d 6 -p tcp -e 1040 -c 0 -i 5 -a 0 -x {0.0 5.0 -1 ------- null}
+ -t 0.70002848 -s 2 -d 6 -p tcp -e 1040 -c 0 -i 6 -a 0 -x {2.0 3.0 1 ------- null}
- -t 0.70002848 -s 2 -d 6 -p tcp -e 1040 -c 0 -i 6 -a 0 -x {2.0 3.0 1 ------- null}
h -t 0.70002848 -s 2 -d 6 -p tcp -e 1040 -c 0 -i 6 -a 0 -x {2.0 3.0 -1 ------- null}
+ -t 0.70002848 -s 2 -d 6 -p tcp -e 1040 -c 0 -i 7 -a 0 -x {2.0 3.0 2 ------- null}
- -t 0.70019904 -s 2 -d 6 -p tcp -e 1040 -c 0 -i 7 -a 0 -x {2.0 3.0 2 ------- null}
h -t 0.70019904 -s 2 -d 6 -p tcp -e 1040 -c 0 -i 7 -a 0 -x {2.0 3.0 -1 ------- null}
r -t 0.70284112 -s 6 -d 4 -p tcp -e 1040 -c 0 -i 4 -a 0 -x {0.0 5.0 1 ------- null}
+ -t 0.70284112 -s 4 -d 5 -p tcp -e 1040 -c 0 -i 4 -a 0 -x {0.0 5.0 1 ------- null}
- -t 0.70284112 -s 4 -d 5 -p tcp -e 1040 -c 0 -i 4 -a 0 -x {0.0 5.0 1 ------- null}
h -t 0.70284112 -s 4 -d 5 -p tcp -e 1040 -c 0 -i 4 -a 0 -x {0.0 5.0 -1 ------- null}
r -t 0.70301168 -s 6 -d 4 -p tcp -e 1040 -c 0 -i 5 -a 0 -x {0.0 5.0 2 ------- null}
+ -t 0.70301168 -s 4 -d 5 -p tcp -e 1040 -c 0 -i 5 -a 0 -x {0.0 5.0 2 ------- null}
- -t 0.71116112 -s 4 -d 5 -p tcp -e 1040 -c 0 -i 5 -a 0 -x {0.0 5.0 2 ------- null}
h -t 0.71116112 -s 4 -d 5 -p tcp -e 1040 -c 0 -i 5 -a 0 -x {0.0 5.0 -1 ------- null}
r -t 0.71216112 -s 4 -d 5 -p tcp -e 1040 -c 0 -i 4 -a 0 -x {0.0 5.0 1 ------- null}
+ -t 0.71216112 -s 5 -d 4 -p ack -e 40 -c 0 -i 8 -a 0 -x {5.0 0.0 1 ------- null}
- -t 0.71216112 -s 5 -d 4 -p ack -e 40 -c 0 -i 8 -a 0 -x {5.0 0.0 1 ------- null}
h -t 0.71216112 -s 5 -d 4 -p ack -e 40 -c 0 -i 8 -a 0 -x {5.0 0.0 -1 ------- null}
r -t 0.71348112 -s 5 -d 4 -p ack -e 40 -c 0 -i 8 -a 0 -x {5.0 0.0 1 ------- null}
h -t 0.71348112 -s 4 -d 6 -p ack -e 40 -c 0 -i 8 -a 0 -x {5.0 0.0 1 ------- null}
r -t 0.72048112 -s 4 -d 5 -p tcp -e 1040 -c 0 -i 5 -a 0 -x {0.0 5.0 2 ------- null}
+ -t 0.72048112 -s 5 -d 4 -p ack -e 40 -c 0 -i 9 -a 0 -x {5.0 0.0 2 ------- null}
- -t 0.72048112 -s 5 -d 4 -p ack -e 40 -c 0 -i 9 -a 0 -x {5.0 0.0 2 ------- null}
h -t 0.72048112 -s 5 -d 4 -p ack -e 40 -c 0 -i 9 -a 0 -x {5.0 0.0 -1 ------- null}
r -t 0.72180112 -s 5 -d 4 -p ack -e 40 -c 0 -i 9 -a 0 -x {5.0 0.0 2 ------- null}
h -t 0.72180112 -s 4 -d 6 -p ack -e 40 -c 0 -i 9 -a 0 -x {5.0 0.0 2 ------- null}
r -t 0.80020112 -s 6 -d 3 -p tcp -e 1040 -c 0 -i 6 -a 0 -x {2.0 3.0 1 ------- null}
h -t 0.80020112 -s 3 -d 6 -p ack -e 40 -c 0 -i 10 -a 0 -x {3.0 2.0 1 ------- null}
r -t 0.80037168 -s 6 -d 3 -p tcp -e 1040 -c 0 -i 7 -a 0 -x {2.0 3.0 2 ------- null}
h -t 0.80037168 -s 3 -d 6 -p ack -e 40 -c 0 -i 11 -a 0 -x {3.0 2.0 2 ------- null}
+ -t 0.81348112 -s 4 -d 6 -p ack -e 40 -c 0 -i 8 -a 0 -x {5.0 0.0 1 ------- null}
- -t 0.81348112 -s 4 -d 6 -p ack -e 40 -c 0 -i 8 -a 0 -x {5.0 0.0 1 ------- null}
h -t 0.81348112 -s 4 -d 6 -p ack -e 40 -c 0 -i 8 -a 0 -x {5.0 0.0 -1 ------- null}
+ -t 0.82180112 -s 4 -d 6 -p ack -e 40 -c 0 -i 9 -a 0 -x {5.0 0.0 2 ------- null}
- -t 0.82180112 -s 4 -d 6 -p ack -e 40 -c 0 -i 9 -a 0 -x {5.0 0.0 2 ------- null}
h -t 0.82180112 -s 4 -d 6 -p ack -e 40 -c 0 -i 9 -a 0 -x {5.0 0.0 -1 ------- null}
+ -t 0.90020112 -s 3 -d 6 -p ack -e 40 -c 0 -i 10 -a 0 -x {3.0 2.0 1 ------- null}
- -t 0.90020112 -s 3 -d 6 -p ack -e 40 -c 0 -i 10 -a 0 -x {3.0 2.0 1 ------- null}
h -t 0.90020112 -s 3 -d 6 -p ack -e 40 -c 0 -i 10 -a 0 -x {3.0 2.0 -1 ------- null}
+ -t 0.90037168 -s 3 -d 6 -p ack -e 40 -c 0 -i 11 -a 0 -x {3.0 2.0 2 ------- null}
- -t 0.90037168 -s 3 -d 6 -p ack -e 40 -c 0 -i 11 -a 0 -x {3.0 2.0 2 ------- null}
h -t 0.90037168 -s 3 -d 6 -p ack -e 40 -c 0 -i 11 -a 0 -x {3.0 2.0 -1 ------- null}
r -t 0.91349536 -s 6 -d 0 -p ack -e 40 -c 0 -i 8 -a 0 -x {5.0 0.0 1 ------- null}
h -t 0.91349536 -s 0 -d 6 -p tcp -e 1040 -c 0 -i 12 -a 0 -x {0.0 5.0 3 ------- null}
h -t 0.91349536 -s 0 -d 6 -p tcp -e 1040 -c 0 -i 13 -a 0 -x {0.0 5.0 4 ------- null}
r -t 0.92181536 -s 6 -d 0 -p ack -e 40 -c 0 -i 9 -a 0 -x {5.0 0.0 2 ------- null}
h -t 0.92181536 -s 0 -d 6 -p tcp -e 1040 -c 0 -i 14 -a 0 -x {0.0 5.0 5 ------- null}
h -t 0.92181536 -s 0 -d 6 -p tcp -e 1040 -c 0 -i 15 -a 0 -x {0.0 5.0 6 ------- null}
r -t 1.00021536 -s 6 -d 2 -p ack -e 40 -c 0 -i 10 -a 0 -x {3.0 2.0 1 ------- null}
h -t 1.00021536 -s 2 -d 6 -p tcp -e 1040 -c 0 -i 16 -a 0 -x {2.0 3.0 3 ------- null}
h -t 1.00021536 -s 2 -d 6 -p tcp -e 1040 -c 0 -i 17 -a 0 -x {2.0 3.0 4 ------- null}
r -t 1.00038592 -s 6 -d 2 -p ack -e 40 -c 0 -i 11 -a 0 -x {3.0 2.0 2 ------- null}
h -t 1.00038592 -s 2 -d 6 -p tcp -e 1040 -c 0 -i 18 -a 0 -x {2.0 3.0 5 ------- null}
h -t 1.00038592 -s 2 -d 6 -p tcp -e 1040 -c 0 -i 19 -a 0 -x {2.0 3.0 6 ------- null}
+ -t 1.01349536 -s 0 -d 6 -p tcp -e 1040 -c 0 -i 12 -a 0 -x {0.0 5.0 3 ------- null}
- -t 1.01349536 -s 0 -d 6 -p tcp -e 1040 -c 0 -i 12 -a 0 -x {0.0 5.0 3 ------- null}
h -t 1.01349536 -s 0 -d 6 -p tcp -e 1040 -c 0 -i 12 -a 0 -x {0.0 5.0 -1 ------- null}
+ -t 1.01349536 -s 0 -d 6 -p tcp -e 1040 -c 0 -i 13 -a 0 -x {0.0 5.0 4 ------- null}
- -t 1.01366592 -s 0 -d 6 -p tcp -e 1040 -c 0 -i 13 -a 0 -x {0.0 5.0 4 ------- null}
h -t 1.01366592 -s 0 -d 6 -p tcp -e 1040 -c 0 -i 13 -a 0 -x {0.0 5.0 -1 ------- null}
+ -t 1.02181536 -s 0 -d 6 -p tcp -e 1040 -c 0 -i 14 -a 0 -x {0.0 5.0 5 ------- null}
- -t 1.02181536 -s 0 -d 6 -p tcp -e 1040 -c 0 -i 14 -a 0 -x {0.0 5.0 5 ------- null}
h -t 1.02181536 -s 0 -d 6 -p tcp -e 1040 -c 0 -i 14 -a 0 -x {0.0 5.0 -1 ------- null}
+ -t 1.02181536 -s 0 -d 6 -p tcp -e 1040 -c 0 -i 15 -a 0 -x {0.0 5.0 6 ------- null}
- -t 1.02198592 -s 0 -d 6 -p tcp -e 1040 -c 0 -i 15 -a 0 -x {0.0 5.0 6 ------- null}
h -t 1.02198592 -s 0 -d 6 -p tcp -e 1040 -c 0 -i 15 -a 0 -x {0.0 5.0 -1 ------- null}
+ -t 1.10021536 -s 2 -d 6 -p tcp -e 1040 -c 0 -i 16 -a 0 -x {2.0 3.0 3 ------- null}
- -t 1.10021536 -s 2 -d 6 -p tcp -e 1040 -c 0 -i 16 -a 0 -x {2.0 3.0 3 ------- null}
h -t 1.10021536 -s 2 -d 6 -p tcp -e 1040 -c 0 -i 16 -a 0 -x {2.0 3.0 -1 ------- null}
+ -t 1.10021536 -s 2 -d 6 -p tcp -e 1040 -c 0 -i 17 -a 0 -x {2.0 3.0 4 ------- null}
+ -t 1.10038592 -s 2 -d 6 -p tcp -e 1040 -c 0 -i 18 -a 0 -x {2.0 3.0 5 ------- null}
+ -t 1.10038592 -s 2 -d 6 -p tcp -e 1040 -c 0 -i 19 -a 0 -x {2.0 3.0 6 ------- null}
- -t 1.10038592 -s 2 -d 6 -p tcp -e 1040 -c 0 -i 17 -a 0 -x {2.0 3.0 4 ------- null}
h -t 1.10038592 -s 2 -d 6 -p tcp -e 1040 -c 0 -i 17 -a 0 -x {2.0 3.0 -1 ------- null}
- -t 1.10055648 -s 2 -d 6 -p tcp -e 1040 -c 0 -i 18 -a 0 -x {2.0 3.0 5 ------- null}
h -t 1.10055648 -s 2 -d 6 -p tcp -e 1040 -c 0 -i 18 -a 0 -x {2.0 3.0 -1 ------- null}
- -t 1.10072704 -s 2 -d 6 -p tcp -e 1040 -c 0 -i 19 -a 0 -x {2.0 3.0 6 ------- null}
h -t 1.10072704 -s 2 -d 6 -p tcp -e 1040 -c 0 -i 19 -a 0 -x {2.0 3.0 -1 ------- null}
r -t 1.113668 -s 6 -d 4 -p tcp -e 1040 -c 0 -i 12 -a 0 -x {0.0 5.0 3 ------- null}
+ -t 1.113668 -s 4 -d 5 -p tcp -e 1040 -c 0 -i 12 -a 0 -x {0.0 5.0 3 ------- null}
- -t 1.113668 -s 4 -d 5 -p tcp -e 1040 -c 0 -i 12 -a 0 -x {0.0 5.0 3 ------- null}
h -t 1.113668 -s 4 -d 5 -p tcp -e 1040 -c 0 -i 12 -a 0 -x {0.0 5.0 -1 ------- null}
r -t 1.11383856 -s 6 -d 4 -p tcp -e 1040 -c 0 -i 13 -a 0 -x {0.0 5.0 4 ------- null}
+ -t 1.11383856 -s 4 -d 5 -p tcp -e 1040 -c 0 -i 13 -a 0 -x {0.0 5.0 4 ------- null}
r -t 1.121988 -s 6 -d 4 -p tcp -e 1040 -c 0 -i 14 -a 0 -x {0.0 5.0 5 ------- null}
+ -t 1.121988 -s 4 -d 5 -p tcp -e 1040 -c 0 -i 14 -a 0 -x {0.0 5.0 5 ------- null}
- -t 1.121988 -s 4 -d 5 -p tcp -e 1040 -c 0 -i 13 -a 0 -x {0.0 5.0 4 ------- null}
h -t 1.121988 -s 4 -d 5 -p tcp -e 1040 -c 0 -i 13 -a 0 -x {0.0 5.0 -1 ------- null}
r -t 1.12215856 -s 6 -d 4 -p tcp -e 1040 -c 0 -i 15 -a 0 -x {0.0 5.0 6 ------- null}
+ -t 1.12215856 -s 4 -d 5 -p tcp -e 1040 -c 0 -i 15 -a 0 -x {0.0 5.0 6 ------- null}
r -t 1.122988 -s 4 -d 5 -p tcp -e 1040 -c 0 -i 12 -a 0 -x {0.0 5.0 3 ------- null}
+ -t 1.122988 -s 5 -d 4 -p ack -e 40 -c 0 -i 20 -a 0 -x {5.0 0.0 3 ------- null}
- -t 1.122988 -s 5 -d 4 -p ack -e 40 -c 0 -i 20 -a 0 -x {5.0 0.0 3 ------- null}
h -t 1.122988 -s 5 -d 4 -p ack -e 40 -c 0 -i 20 -a 0 -x {5.0 0.0 -1 ------- null}
r -t 1.124308 -s 5 -d 4 -p ack -e 40 -c 0 -i 20 -a 0 -x {5.0 0.0 3 ------- null}
h -t 1.124308 -s 4 -d 6 -p ack -e 40 -c 0 -i 20 -a 0 -x {5.0 0.0 3 ------- null}
- -t 1.130308 -s 4 -d 5 -p tcp -e 1040 -c 0 -i 14 -a 0 -x {0.0 5.0 5 ------- null}
h -t 1.130308 -s 4 -d 5 -p tcp -e 1040 -c 0 -i 14 -a 0 -x {0.0 5.0 -1 ------- null}
r -t 1.131308 -s 4 -d 5 -p tcp -e 1040 -c 0 -i 13 -a 0 -x {0.0 5.0 4 ------- null}
+ -t 1.131308 -s 5 -d 4 -p ack -e 40 -c 0 -i 21 -a 0 -x {5.0 0.0 4 ------- null}
- -t 1.131308 -s 5 -d 4 -p ack -e 40 -c 0 -i 21 -a 0 -x {5.0 0.0 4 ------- null}
h -t 1.131308 -s 5 -d 4 -p ack -e 40 -c 0 -i 21 -a 0 -x {5.0 0.0 -1 ------- null}
r -t 1.132628 -s 5 -d 4 -p ack -e 40 -c 0 -i 21 -a 0 -x {5.0 0.0 4 ------- null}
h -t 1.132628 -s 4 -d 6 -p ack -e 40 -c 0 -i 21 -a 0 -x {5.0 0.0 4 ------- null}
- -t 1.138628 -s 4 -d 5 -p tcp -e 1040 -c 0 -i 15 -a 0 -x {0.0 5.0 6 ------- null}
h -t 1.138628 -s 4 -d 5 -p tcp -e 1040 -c 0 -i 15 -a 0 -x {0.0 5.0 -1 ------- null}
r -t 1.139628 -s 4 -d 5 -p tcp -e 1040 -c 0 -i 14 -a 0 -x {0.0 5.0 5 ------- null}
+ -t 1.139628 -s 5 -d 4 -p ack -e 40 -c 0 -i 22 -a 0 -x {5.0 0.0 5 ------- null}
- -t 1.139628 -s 5 -d 4 -p ack -e 40 -c 0 -i 22 -a 0 -x {5.0 0.0 5 ------- null}
h -t 1.139628 -s 5 -d 4 -p ack -e 40 -c 0 -i 22 -a 0 -x {5.0 0.0 -1 ------- null}
r -t 1.140948 -s 5 -d 4 -p ack -e 40 -c 0 -i 22 -a 0 -x {5.0 0.0 5 ------- null}
h -t 1.140948 -s 4 -d 6 -p ack -e 40 -c 0 -i 22 -a 0 -x {5.0 0.0 5 ------- null}
r -t 1.147948 -s 4 -d 5 -p tcp -e 1040 -c 0 -i 15 -a 0 -x {0.0 5.0 6 ------- null}
+ -t 1.147948 -s 5 -d 4 -p ack -e 40 -c 0 -i 23 -a 0 -x {5.0 0.0 6 ------- null}
- -t 1.147948 -s 5 -d 4 -p ack -e 40 -c 0 -i 23 -a 0 -x {5.0 0.0 6 ------- null}
h -t 1.147948 -s 5 -d 4 -p ack -e 40 -c 0 -i 23 -a 0 -x {5.0 0.0 -1 ------- null}
r -t 1.149268 -s 5 -d 4 -p ack -e 40 -c 0 -i 23 -a 0 -x {5.0 0.0 6 ------- null}
h -t 1.149268 -s 4 -d 6 -p ack -e 40 -c 0 -i 23 -a 0 -x {5.0 0.0 6 ------- null}
r -t 1.200388 -s 6 -d 3 -p tcp -e 1040 -c 0 -i 16 -a 0 -x {2.0 3.0 3 ------- null}
h -t 1.200388 -s 3 -d 6 -p ack -e 40 -c 0 -i 24 -a 0 -x {3.0 2.0 3 ------- null}
r -t 1.20055856 -s 6 -d 3 -p tcp -e 1040 -c 0 -i 17 -a 0 -x {2.0 3.0 4 ------- null}
h -t 1.20055856 -s 3 -d 6 -p ack -e 40 -c 0 -i 25 -a 0 -x {3.0 2.0 4 ------- null}
r -t 1.20072912 -s 6 -d 3 -p tcp -e 1040 -c 0 -i 18 -a 0 -x {2.0 3.0 5 ------- null}
h -t 1.20072912 -s 3 -d 6 -p ack -e 40 -c 0 -i 26 -a 0 -x {3.0 2.0 5 ------- null}
r -t 1.20089968 -s 6 -d 3 -p tcp -e 1040 -c 0 -i 19 -a 0 -x {2.0 3.0 6 ------- null}
h -t 1.20089968 -s 3 -d 6 -p ack -e 40 -c 0 -i 27 -a 0 -x {3.0 2.0 6 ------- null}
+ -t 1.224308 -s 4 -d 6 -p ack -e 40 -c 0 -i 20 -a 0 -x {5.0 0.0 3 ------- null}
- -t 1.224308 -s 4 -d 6 -p ack -e 40 -c 0 -i 20 -a 0 -x {5.0 0.0 3 ------- null}
h -t 1.224308 -s 4 -d 6 -p ack -e 40 -c 0 -i 20 -a 0 -x {5.0 0.0 -1 ------- null}
+ -t 1.232628 -s 4 -d 6 -p ack -e 40 -c 0 -i 21 -a 0 -x {5.0 0.0 4 ------- null}
- -t 1.232628 -s 4 -d 6 -p ack -e 40 -c 0 -i 21 -a 0 -x {5.0 0.0 4 ------- null}
h -t 1.232628 -s 4 -d 6 -p ack -e 40 -c 0 -i 21 -a 0 -x {5.0 0.0 -1 ------- null}
+ -t 1.240948 -s 4 -d 6 -p ack -e 40 -c 0 -i 22 -a 0 -x {5.0 0.0 5 ------- null}
- -t 1.240948 -s 4 -d 6 -p ack -e 40 -c 0 -i 22 -a 0 -x {5.0 0.0 5 ------- null}
h -t 1.240948 -s 4 -d 6 -p ack -e 40 -c 0 -i 22 -a 0 -x {5.0 0.0 -1 ------- null}
+ -t 1.249268 -s 4 -d 6 -p ack -e 40 -c 0 -i 23 -a 0 -x {5.0 0.0 6 ------- null}
- -t 1.249268 -s 4 -d 6 -p ack -e 40 -c 0 -i 23 -a 0 -x {5.0 0.0 6 ------- null}
h -t 1.249268 -s 4 -d 6 -p ack -e 40 -c 0 -i 23 -a 0 -x {5.0 0.0 -1 ------- null}
+ -t 1.300388 -s 3 -d 6 -p ack -e 40 -c 0 -i 24 -a 0 -x {3.0 2.0 3 ------- null}
- -t 1.300388 -s 3 -d 6 -p ack -e 40 -c 0 -i 24 -a 0 -x {3.0 2.0 3 ------- null}
h -t 1.300388 -s 3 -d 6 -p ack -e 40 -c 0 -i 24 -a 0 -x {3.0 2.0 -1 ------- null}
+ -t 1.30055856 -s 3 -d 6 -p ack -e 40 -c 0 -i 25 -a 0 -x {3.0 2.0 4 ------- null}
- -t 1.30055856 -s 3 -d 6 -p ack -e 40 -c 0 -i 25 -a 0 -x {3.0 2.0 4 ------- null}
h -t 1.30055856 -s 3 -d 6 -p ack -e 40 -c 0 -i 25 -a 0 -x {3.0 2.0 -1 ------- null}
+ -t 1.30072912 -s 3 -d 6 -p ack -e 40 -c 0 -i 26 -a 0 -x {3.0 2.0 5 ------- null}
- -t 1.30072912 -s 3 -d 6 -p ack -e 40 -c 0 -i 26 -a 0 -x {3.0 2.0 5 ------- null}
h -t 1.30072912 -s 3 -d 6 -p ack -e 40 -c 0 -i 26 -a 0 -x {3.0 2.0 -1 ------- null}
+ -t 1.30089968 -s 3 -d 6 -p ack -e 40 -c 0 -i 27 -a 0 -x {3.0 2.0 6 ------- null}
- -t 1.30089968 -s 3 -d 6 -p ack -e 40 -c 0 -i 27 -a 0 -x {3.0 2.0 6 ------- null}
h -t 1.30089968 -s 3 -d 6 -p ack -e 40 -c 0 -i 27 -a 0 -x {3.0 2.0 -1 ------- null}
r -t 1.32432224 -s 6 -d 0 -p ack -e 40 -c 0 -i 20 -a 0 -x {5.0 0.0 3 ------- null}
h -t 1.32432224 -s 0 -d 6 -p tcp -e 1040 -c 0 -i 28 -a 0 -x {0.0 5.0 7 ------- null}
h -t 1.32432224 -s 0 -d 6 -p tcp -e 1040 -c 0 -i 29 -a 0 -x {0.0 5.0 8 ------- null}
r -t 1.33264224 -s 6 -d 0 -p ack -e 40 -c 0 -i 21 -a 0 -x {5.0 0.0 4 ------- null}
h -t 1.33264224 -s 0 -d 6 -p tcp -e 1040 -c 0 -i 30 -a 0 -x {0.0 5.0 9 ------- null}
h -t 1.33264224 -s 0 -d 6 -p tcp -e 1040 -c 0 -i 31 -a 0 -x {0.0 5.0 10 ------- null}
r -t 1.34096224 -s 6 -d 0 -p ack -e 40 -c 0 -i 22 -a 0 -x {5.0 0.0 5 ------- null}
h -t 1.34096224 -s 0 -d 6 -p tcp -e 1040 -c 0 -i 32 -a 0 -x {0.0 5.0 11 ------- null}
h -t 1.34096224 -s 0 -d 6 -p tcp -e 1040 -c 0 -i 33 -a 0 -x {0.0 5.0 12 ------- null}
r -t 1.34928224 -s 6 -d 0 -p ack -e 40 -c 0 -i 23 -a 0 -x {5.0 0.0 6 ------- null}
h -t 1.34928224 -s 0 -d 6 -p tcp -e 1040 -c 0 -i 34 -a 0 -x {0.0 5.0 13 ------- null}
h -t 1.34928224 -s 0 -d 6 -p tcp -e 1040 -c 0 -i 35 -a 0 -x {0.0 5.0 14 ------- null}
r -t 1.40040224 -s 6 -d 2 -p ack -e 40 -c 0 -i 24 -a 0 -x {3.0 2.0 3 ------- null}
h -t 1.40040224 -s 2 -d 6 -p tcp -e 1040 -c 0 -i 36 -a 0 -x {2.0 3.0 7 ------- null}
h -t 1.40040224 -s 2 -d 6 -p tcp -e 1040 -c 0 -i 37 -a 0 -x {2.0 3.0 8 ------- null}
r -t 1.4005728 -s 6 -d 2 -p ack -e 40 -c 0 -i 25 -a 0 -x {3.0 2.0 4 ------- null}
h -t 1.4005728 -s 2 -d 6 -p tcp -e 1040 -c 0 -i 38 -a 0 -x {2.0 3.0 9 ------- null}
h -t 1.4005728 -s 2 -d 6 -p tcp -e 1040 -c 0 -i 39 -a 0 -x {2.0 3.0 10 ------- null}
r -t 1.40074336 -s 6 -d 2 -p ack -e 40 -c 0 -i 26 -a 0 -x {3.0 2.0 5 ------- null}
h -t 1.40074336 -s 2 -d 6 -p tcp -e 1040 -c 0 -i 40 -a 0 -x {2.0 3.0 11 ------- null}
h -t 1.40074336 -s 2 -d 6 -p tcp -e 1040 -c 0 -i 41 -a 0 -x {2.0 3.0 12 ------- null}
r -t 1.40091392 -s 6 -d 2 -p ack -e 40 -c 0 -i 27 -a 0 -x {3.0 2.0 6 ------- null}
h -t 1.40091392 -s 2 -d 6 -p tcp -e 1040 -c 0 -i 42 -a 0 -x {2.0 3.0 13 ------- null}
h -t 1.40091392 -s 2 -d 6 -p tcp -e 1040 -c 0 -i 43 -a 0 -x {2.0 3.0 14 ------- null}
+ -t 1.42432224 -s 0 -d 6 -p tcp -e 1040 -c 0 -i 28 -a 0 -x {0.0 5.0 7 ------- null}
- -t 1.42432224 -s 0 -d 6 -p tcp -e 1040 -c 0 -i 28 -a 0 -x {0.0 5.0 7 ------- null}
h -t 1.42432224 -s 0 -d 6 -p tcp -e 1040 -c 0 -i 28 -a 0 -x {0.0 5.0 -1 ------- null}
+ -t 1.42432224 -s 0 -d 6 -p tcp -e 1040 -c 0 -i 29 -a 0 -x {0.0 5.0 8 ------- null}
- -t 1.4244928 -s 0 -d 6 -p tcp -e 1040 -c 0 -i 29 -a 0 -x {0.0 5.0 8 ------- null}
h -t 1.4244928 -s 0 -d 6 -p tcp -e 1040 -c 0 -i 29 -a 0 -x {0.0 5.0 -1 ------- null}
+ -t 1.43264224 -s 0 -d 6 -p tcp -e 1040 -c 0 -i 30 -a 0 -x {0.0 5.0 9 ------- null}
- -t 1.43264224 -s 0 -d 6 -p tcp -e 1040 -c 0 -i 30 -a 0 -x {0.0 5.0 9 ------- null}
h -t 1.43264224 -s 0 -d 6 -p tcp -e 1040 -c 0 -i 30 -a 0 -x {0.0 5.0 -1 ------- null}
+ -t 1.43264224 -s 0 -d 6 -p tcp -e 1040 -c 0 -i 31 -a 0 -x {0.0 5.0 10 ------- null}
- -t 1.4328128 -s 0 -d 6 -p tcp -e 1040 -c 0 -i 31 -a 0 -x {0.0 5.0 10 ------- null}
h -t 1.4328128 -s 0 -d 6 -p tcp -e 1040 -c 0 -i 31 -a 0 -x {0.0 5.0 -1 ------- null}
+ -t 1.44096224 -s 0 -d 6 -p tcp -e 1040 -c 0 -i 32 -a 0 -x {0.0 5.0 11 ------- null}
- -t 1.44096224 -s 0 -d 6 -p tcp -e 1040 -c 0 -i 32 -a 0 -x {0.0 5.0 11 ------- null}
h -t 1.44096224 -s 0 -d 6 -p tcp -e 1040 -c 0 -i 32 -a 0 -x {0.0 5.0 -1 ------- null}
+ -t 1.44096224 -s 0 -d 6 -p tcp -e 1040 -c 0 -i 33 -a 0 -x {0.0 5.0 12 ------- null}
- -t 1.4411328 -s 0 -d 6 -p tcp -e 1040 -c 0 -i 33 -a 0 -x {0.0 5.0 12 ------- null}
h -t 1.4411328 -s 0 -d 6 -p tcp -e 1040 -c 0 -i 33 -a 0 -x {0.0 5.0 -1 ------- null}
+ -t 1.44928224 -s 0 -d 6 -p tcp -e 1040 -c 0 -i 34 -a 0 -x {0.0 5.0 13 ------- null}
- -t 1.44928224 -s 0 -d 6 -p tcp -e 1040 -c 0 -i 34 -a 0 -x {0.0 5.0 13 ------- null}
h -t 1.44928224 -s 0 -d 6 -p tcp -e 1040 -c 0 -i 34 -a 0 -x {0.0 5.0 -1 ------- null}
+ -t 1.44928224 -s 0 -d 6 -p tcp -e 1040 -c 0 -i 35 -a 0 -x {0.0 5.0 14 ------- null}
- -t 1.4494528 -s 0 -d 6 -p tcp -e 1040 -c 0 -i 35 -a 0 -x {0.0 5.0 14 ------- null}
h -t 1.4494528 -s 0 -d 6 -p tcp -e 1040 -c 0 -i 35 -a 0 -x {0.0 5.0 -1 ------- null}
+ -t 1.50040224 -s 2 -d 6 -p tcp -e 1040 -c 0 -i 36 -a 0 -x {2.0 3.0 7 ------- null}
- -t 1.50040224 -s 2 -d 6 -p tcp -e 1040 -c 0 -i 36 -a 0 -x {2.0 3.0 7 ------- null}
h -t 1.50040224 -s 2 -d 6 -p tcp -e 1040 -c 0 -i 36 -a 0 -x {2.0 3.0 -1 ------- null}
+ -t 1.50040224 -s 2 -d 6 -p tcp -e 1040 -c 0 -i 37 -a 0 -x {2.0 3.0 8 ------- null}
+ -t 1.5005728 -s 2 -d 6 -p tcp -e 1040 -c 0 -i 38 -a 0 -x {2.0 3.0 9 ------- null}
+ -t 1.5005728 -s 2 -d 6 -p tcp -e 1040 -c 0 -i 39 -a 0 -x {2.0 3.0 10 ------- null}
- -t 1.5005728 -s 2 -d 6 -p tcp -e 1040 -c 0 -i 37 -a 0 -x {2.0 3.0 8 ------- null}
h -t 1.5005728 -s 2 -d 6 -p tcp -e 1040 -c 0 -i 37 -a 0 -x {2.0 3.0 -1 ------- null}
+ -t 1.50074336 -s 2 -d 6 -p tcp -e 1040 -c 0 -i 40 -a 0 -x {2.0 3.0 11 ------- null}
+ -t 1.50074336 -s 2 -d 6 -p tcp -e 1040 -c 0 -i 41 -a 0 -x {2.0 3.0 12 ------- null}
- -t 1.50074336 -s 2 -d 6 -p tcp -e 1040 -c 0 -i 38 -a 0 -x {2.0 3.0 9 ------- null}
h -t 1.50074336 -s 2 -d 6 -p tcp -e 1040 -c 0 -i 38 -a 0 -x {2.0 3.0 -1 ------- null}
+ -t 1.50091392 -s 2 -d 6 -p tcp -e 1040 -c 0 -i 42 -a 0 -x {2.0 3.0 13 ------- null}
+ -t 1.50091392 -s 2 -d 6 -p tcp -e 1040 -c 0 -i 43 -a 0 -x {2.0 3.0 14 ------- null}
- -t 1.50091392 -s 2 -d 6 -p tcp -e 1040 -c 0 -i 39 -a 0 -x {2.0 3.0 10 ------- null}
h -t 1.50091392 -s 2 -d 6 -p tcp -e 1040 -c 0 -i 39 -a 0 -x {2.0 3.0 -1 ------- null}
- -t 1.50108448 -s 2 -d 6 -p tcp -e 1040 -c 0 -i 40 -a 0 -x {2.0 3.0 11 ------- null}
h -t 1.50108448 -s 2 -d 6 -p tcp -e 1040 -c 0 -i 40 -a 0 -x {2.0 3.0 -1 ------- null}
- -t 1.50125504 -s 2 -d 6 -p tcp -e 1040 -c 0 -i 41 -a 0 -x {2.0 3.0 12 ------- null}
h -t 1.50125504 -s 2 -d 6 -p tcp -e 1040 -c 0 -i 41 -a 0 -x {2.0 3.0 -1 ------- null}
- -t 1.5014256 -s 2 -d 6 -p tcp -e 1040 -c 0 -i 42 -a 0 -x {2.0 3.0 13 ------- null}
h -t 1.5014256 -s 2 -d 6 -p tcp -e 1040 -c 0 -i 42 -a 0 -x {2.0 3.0 -1 ------- null}
- -t 1.50159616 -s 2 -d 6 -p tcp -e 1040 -c 0 -i 43 -a 0 -x {2.0 3.0 14 ------- null}
h -t 1.50159616 -s 2 -d 6 -p tcp -e 1040 -c 0 -i 43 -a 0 -x {2.0 3.0 -1 ------- null}
r -t 1.52449488 -s 6 -d 4 -p tcp -e 1040 -c 0 -i 28 -a 0 -x {0.0 5.0 7 ------- null}
+ -t 1.52449488 -s 4 -d 5 -p tcp -e 1040 -c 0 -i 28 -a 0 -x {0.0 5.0 7 ------- null}
- -t 1.52449488 -s 4 -d 5 -p tcp -e 1040 -c 0 -i 28 -a 0 -x {0.0 5.0 7 ------- null}
h -t 1.52449488 -s 4 -d 5 -p tcp -e 1040 -c 0 -i 28 -a 0 -x {0.0 5.0 -1 ------- null}
r -t 1.52466544 -s 6 -d 4 -p tcp -e 1040 -c 0 -i 29 -a 0 -x {0.0 5.0 8 ------- null}
+ -t 1.52466544 -s 4 -d 5 -p tcp -e 1040 -c 0 -i 29 -a 0 -x {0.0 5.0 8 ------- null}
r -t 1.53281488 -s 6 -d 4 -p tcp -e 1040 -c 0 -i 30 -a 0 -x {0.0 5.0 9 ------- null}
+ -t 1.53281488 -s 4 -d 5 -p tcp -e 1040 -c 0 -i 30 -a 0 -x {0.0 5.0 9 ------- null}
- -t 1.53281488 -s 4 -d 5 -p tcp -e 1040 -c 0 -i 29 -a 0 -x {0.0 5.0 8 ------- null}
h -t 1.53281488 -s 4 -d 5 -p tcp -e 1040 -c 0 -i 29 -a 0 -x {0.0 5.0 -1 ------- null}
r -t 1.53298544 -s 6 -d 4 -p tcp -e 1040 -c 0 -i 31 -a 0 -x {0.0 5.0 10 ------- null}
+ -t 1.53298544 -s 4 -d 5 -p tcp -e 1040 -c 0 -i 31 -a 0 -x {0.0 5.0 10 ------- null}
r -t 1.53381488 -s 4 -d 5 -p tcp -e 1040 -c 0 -i 28 -a 0 -x {0.0 5.0 7 ------- null}
+ -t 1.53381488 -s 5 -d 4 -p ack -e 40 -c 0 -i 44 -a 0 -x {5.0 0.0 7 ------- null}
- -t 1.53381488 -s 5 -d 4 -p ack -e 40 -c 0 -i 44 -a 0 -x {5.0 0.0 7 ------- null}
h -t 1.53381488 -s 5 -d 4 -p ack -e 40 -c 0 -i 44 -a 0 -x {5.0 0.0 -1 ------- null}
r -t 1.53513488 -s 5 -d 4 -p ack -e 40 -c 0 -i 44 -a 0 -x {5.0 0.0 7 ------- null}
h -t 1.53513488 -s 4 -d 6 -p ack -e 40 -c 0 -i 44 -a 0 -x {5.0 0.0 7 ------- null}
r -t 1.54113488 -s 6 -d 4 -p tcp -e 1040 -c 0 -i 32 -a 0 -x {0.0 5.0 11 ------- null}
+ -t 1.54113488 -s 4 -d 5 -p tcp -e 1040 -c 0 -i 32 -a 0 -x {0.0 5.0 11 ------- null}
- -t 1.54113488 -s 4 -d 5 -p tcp -e 1040 -c 0 -i 30 -a 0 -x {0.0 5.0 9 ------- null}
h -t 1.54113488 -s 4 -d 5 -p tcp -e 1040 -c 0 -i 30 -a 0 -x {0.0 5.0 -1 ------- null}
r -t 1.54130544 -s 6 -d 4 -p tcp -e 1040 -c 0 -i 33 -a 0 -x {0.0 5.0 12 ------- null}
+ -t 1.54130544 -s 4 -d 5 -p tcp -e 1040 -c 0 -i 33 -a 0 -x {0.0 5.0 12 ------- null}
r -t 1.54213488 -s 4 -d 5 -p tcp -e 1040 -c 0 -i 29 -a 0 -x {0.0 5.0 8 ------- null}
+ -t 1.54213488 -s 5 -d 4 -p ack -e 40 -c 0 -i 45 -a 0 -x {5.0 0.0 8 ------- null}
- -t 1.54213488 -s 5 -d 4 -p ack -e 40 -c 0 -i 45 -a 0 -x {5.0 0.0 8 ------- null}
h -t 1.54213488 -s 5 -d 4 -p ack -e 40 -c 0 -i 45 -a 0 -x {5.0 0.0 -1 ------- null}
r -t 1.54345488 -s 5 -d 4 -p ack -e 40 -c 0 -i 45 -a 0 -x {5.0 0.0 8 ------- null}
h -t 1.54345488 -s 4 -d 6 -p ack -e 40 -c 0 -i 45 -a 0 -x {5.0 0.0 8 ------- null}
r -t 1.54945488 -s 6 -d 4 -p tcp -e 1040 -c 0 -i 34 -a 0 -x {0.0 5.0 13 ------- null}
+ -t 1.54945488 -s 4 -d 5 -p tcp -e 1040 -c 0 -i 34 -a 0 -x {0.0 5.0 13 ------- null}
- -t 1.54945488 -s 4 -d 5 -p tcp -e 1040 -c 0 -i 31 -a 0 -x {0.0 5.0 10 ------- null}
h -t 1.54945488 -s 4 -d 5 -p tcp -e 1040 -c 0 -i 31 -a 0 -x {0.0 5.0 -1 ------- null}
r -t 1.54962544 -s 6 -d 4 -p tcp -e 1040 -c 0 -i 35 -a 0 -x {0.0 5.0 14 ------- null}
+ -t 1.54962544 -s 4 -d 5 -p tcp -e 1040 -c 0 -i 35 -a 0 -x {0.0 5.0 14 ------- null}
r -t 1.55045488 -s 4 -d 5 -p tcp -e 1040 -c 0 -i 30 -a 0 -x {0.0 5.0 9 ------- null}
+ -t 1.55045488 -s 5 -d 4 -p ack -e 40 -c 0 -i 46 -a 0 -x {5.0 0.0 9 ------- null}
- -t 1.55045488 -s 5 -d 4 -p ack -e 40 -c 0 -i 46 -a 0 -x {5.0 0.0 9 ------- null}
h -t 1.55045488 -s 5 -d 4 -p ack -e 40 -c 0 -i 46 -a 0 -x {5.0 0.0 -1 ------- null}
r -t 1.55177488 -s 5 -d 4 -p ack -e 40 -c 0 -i 46 -a 0 -x {5.0 0.0 9 ------- null}
h -t 1.55177488 -s 4 -d 6 -p ack -e 40 -c 0 -i 46 -a 0 -x {5.0 0.0 9 ------- null}
- -t 1.55777488 -s 4 -d 5 -p tcp -e 1040 -c 0 -i 32 -a 0 -x {0.0 5.0 11 ------- null}
h -t 1.55777488 -s 4 -d 5 -p tcp -e 1040 -c 0 -i 32 -a 0 -x {0.0 5.0 -1 ------- null}
r -t 1.55877488 -s 4 -d 5 -p tcp -e 1040 -c 0 -i 31 -a 0 -x {0.0 5.0 10 ------- null}
+ -t 1.55877488 -s 5 -d 4 -p ack -e 40 -c 0 -i 47 -a 0 -x {5.0 0.0 10 ------- null}
- -t 1.55877488 -s 5 -d 4 -p ack -e 40 -c 0 -i 47 -a 0 -x {5.0 0.0 10 ------- null}
h -t 1.55877488 -s 5 -d 4 -p ack -e 40 -c 0 -i 47 -a 0 -x {5.0 0.0 -1 ------- null}
r -t 1.56009488 -s 5 -d 4 -p ack -e 40 -c 0 -i 47 -a 0 -x {5.0 0.0 10 ------- null}
h -t 1.56009488 -s 4 -d 6 -p ack -e 40 -c 0 -i 47 -a 0 -x {5.0 0.0 10 ------- null}
- -t 1.56609488 -s 4 -d 5 -p tcp -e 1040 -c 0 -i 33 -a 0 -x {0.0 5.0 12 ------- null}
h -t 1.56609488 -s 4 -d 5 -p tcp -e 1040 -c 0 -i 33 -a 0 -x {0.0 5.0 -1 ------- null}
r -t 1.56709488 -s 4 -d 5 -p tcp -e 1040 -c 0 -i 32 -a 0 -x {0.0 5.0 11 ------- null}
+ -t 1.56709488 -s 5 -d 4 -p ack -e 40 -c 0 -i 48 -a 0 -x {5.0 0.0 11 ------- null}
- -t 1.56709488 -s 5 -d 4 -p ack -e 40 -c 0 -i 48 -a 0 -x {5.0 0.0 11 ------- null}
h -t 1.56709488 -s 5 -d 4 -p ack -e 40 -c 0 -i 48 -a 0 -x {5.0 0.0 -1 ------- null}
r -t 1.56841488 -s 5 -d 4 -p ack -e 40 -c 0 -i 48 -a 0 -x {5.0 0.0 11 ------- null}
h -t 1.56841488 -s 4 -d 6 -p ack -e 40 -c 0 -i 48 -a 0 -x {5.0 0.0 11 ------- null}
- -t 1.57441488 -s 4 -d 5 -p tcp -e 1040 -c 0 -i 34 -a 0 -x {0.0 5.0 13 ------- null}
h -t 1.57441488 -s 4 -d 5 -p tcp -e 1040 -c 0 -i 34 -a 0 -x {0.0 5.0 -1 ------- null}
r -t 1.57541488 -s 4 -d 5 -p tcp -e 1040 -c 0 -i 33 -a 0 -x {0.0 5.0 12 ------- null}
+ -t 1.57541488 -s 5 -d 4 -p ack -e 40 -c 0 -i 49 -a 0 -x {5.0 0.0 12 ------- null}
- -t 1.57541488 -s 5 -d 4 -p ack -e 40 -c 0 -i 49 -a 0 -x {5.0 0.0 12 ------- null}
h -t 1.57541488 -s 5 -d 4 -p ack -e 40 -c 0 -i 49 -a 0 -x {5.0 0.0 -1 ------- null}
r -t 1.57673488 -s 5 -d 4 -p ack -e 40 -c 0 -i 49 -a 0 -x {5.0 0.0 12 ------- null}
h -t 1.57673488 -s 4 -d 6 -p ack -e 40 -c 0 -i 49 -a 0 -x {5.0 0.0 12 ------- null}
- -t 1.58273488 -s 4 -d 5 -p tcp -e 1040 -c 0 -i 35 -a 0 -x {0.0 5.0 14 ------- null}
h -t 1.58273488 -s 4 -d 5 -p tcp -e 1040 -c 0 -i 35 -a 0 -x {0.0 5.0 -1 ------- null}
r -t 1.58373488 -s 4 -d 5 -p tcp -e 1040 -c 0 -i 34 -a 0 -x {0.0 5.0 13 ------- null}
+ -t 1.58373488 -s 5 -d 4 -p ack -e 40 -c 0 -i 50 -a 0 -x {5.0 0.0 13 ------- null}
- -t 1.58373488 -s 5 -d 4 -p ack -e 40 -c 0 -i 50 -a 0 -x {5.0 0.0 13 ------- null}
h -t 1.58373488 -s 5 -d 4 -p ack -e 40 -c 0 -i 50 -a 0 -x {5.0 0.0 -1 ------- null}
r -t 1.58505488 -s 5 -d 4 -p ack -e 40 -c 0 -i 50 -a 0 -x {5.0 0.0 13 ------- null}
h -t 1.58505488 -s 4 -d 6 -p ack -e 40 -c 0 -i 50 -a 0 -x {5.0 0.0 13 ------- null}
r -t 1.59205488 -s 4 -d 5 -p tcp -e 1040 -c 0 -i 35 -a 0 -x {0.0 5.0 14 ------- null}
+ -t 1.59205488 -s 5 -d 4 -p ack -e 40 -c 0 -i 51 -a 0 -x {5.0 0.0 14 ------- null}
- -t 1.59205488 -s 5 -d 4 -p ack -e 40 -c 0 -i 51 -a 0 -x {5.0 0.0 14 ------- null}
h -t 1.59205488 -s 5 -d 4 -p ack -e 40 -c 0 -i 51 -a 0 -x {5.0 0.0 -1 ------- null}
r -t 1.59337488 -s 5 -d 4 -p ack -e 40 -c 0 -i 51 -a 0 -x {5.0 0.0 14 ------- null}
h -t 1.59337488 -s 4 -d 6 -p ack -e 40 -c 0 -i 51 -a 0 -x {5.0 0.0 14 ------- null}
r -t 1.60057488 -s 6 -d 3 -p tcp -e 1040 -c 0 -i 36 -a 0 -x {2.0 3.0 7 ------- null}
h -t 1.60057488 -s 3 -d 6 -p ack -e 40 -c 0 -i 52 -a 0 -x {3.0 2.0 7 ------- null}
r -t 1.60074544 -s 6 -d 3 -p tcp -e 1040 -c 0 -i 37 -a 0 -x {2.0 3.0 8 ------- null}
h -t 1.60074544 -s 3 -d 6 -p ack -e 40 -c 0 -i 53 -a 0 -x {3.0 2.0 8 ------- null}
r -t 1.600916 -s 6 -d 3 -p tcp -e 1040 -c 0 -i 38 -a 0 -x {2.0 3.0 9 ------- null}
h -t 1.600916 -s 3 -d 6 -p ack -e 40 -c 0 -i 54 -a 0 -x {3.0 2.0 9 ------- null}
r -t 1.60108656 -s 6 -d 3 -p tcp -e 1040 -c 0 -i 39 -a 0 -x {2.0 3.0 10 ------- null}
h -t 1.60108656 -s 3 -d 6 -p ack -e 40 -c 0 -i 55 -a 0 -x {3.0 2.0 10 ------- null}