h 0.1 0 6 tcp 40 ------- 0 0.0 5.0 0 0
h 0.2 2 6 tcp 40 ------- 0 2.0 3.0 0 1
+ 0.2 0 6 tcp 40 ------- 0 0.0 5.0 0 0
- 0.2 0 6 tcp 40 ------- 0 0.0 5.0 0 0
+ 0.3 2 6 tcp 40 ------- 0 2.0 3.0 0 1
- 0.3 2 6 tcp 40 ------- 0 2.0 3.0 0 1
r 0.300014 6 4 tcp 40 ------- 0 0.0 5.0 0 0
+ 0.300014 4 5 tcp 40 ------- 0 0.0 5.0 0 0
- 0.300014 4 5 tcp 40 ------- 0 0.0 5.0 0 0
r 0.301334 4 5 tcp 40 ------- 0 0.0 5.0 0 0
+ 0.301334 5 4 ack 40 ------- 0 5.0 0.0 0 2
- 0.301334 5 4 ack 40 ------- 0 5.0 0.0 0 2
r 0.302654 5 4 ack 40 ------- 0 5.0 0.0 0 2
h 0.302654 4 6 ack 40 ------- 0 5.0 0.0 0 2
r 0.400014 6 3 tcp 40 ------- 0 2.0 3.0 0 1
h 0.400014 3 6 ack 40 ------- 0 3.0 2.0 0 3
+ 0.402654 4 6 ack 40 ------- 0 5.0 0.0 0 2
- 0.402654 4 6 ack 40 ------- 0 5.0 0.0 0 2
+ 0.500014 3 6 ack 40 ------- 0 3.0 2.0 0 3
- 0.500014 3 6 ack 40 ------- 0 3.0 2.0 0 3
r 0.502668 6 0 ack 40 ------- 0 5.0 0.0 0 2
h 0.502668 0 6 tcp 1040 ------- 0 0.0 5.0 1 4
h 0.502668 0 6 tcp 1040 ------- 0 0.0 5.0 2 5
r 0.600028 6 2 ack 40 ------- 0 3.0 2.0 0 3
h 0.600028 2 6 tcp 1040 ------- 0 2.0 3.0 1 6
h 0.600028 2 6 tcp 1040 ------- 0 2.0 3.0 2 7
+ 0.602668 0 6 tcp 1040 ------- 0 0.0 5.0 1 4
- 0.602668 0 6 tcp 1040 ------- 0 0.0 5.0 1 4
+ 0.602668 0 6 tcp 1040 ------- 0 0.0 5.0 2 5
- 0.602839 0 6 tcp 1040 ------- 0 0.0 5.0 2 5
+ 0.700028 2 6 tcp 1040 ------- 0 2.0 3.0 1 6
- 0.700028 2 6 tcp 1040 ------- 0 2.0 3.0 1 6
+ 0.700028 2 6 tcp 1040 ------- 0 2.0 3.0 2 7
- 0.700199 2 6 tcp 1040 ------- 0 2.0 3.0 2 7
r 0.702841 6 4 tcp 1040 ------- 0 0.0 5.0 1 4
+ 0.702841 4 5 tcp 1040 ------- 0 0.0 5.0 1 4
- 0.702841 4 5 tcp 1040 ------- 0 0.0 5.0 1 4
r 0.703012 6 4 tcp 1040 ------- 0 0.0 5.0 2 5
+ 0.703012 4 5 tcp 1040 ------- 0 0.0 5.0 2 5
- 0.711161 4 5 tcp 1040 ------- 0 0.0 5.0 2 5
r 0.712161 4 5 tcp 1040 ------- 0 0.0 5.0 1 4
+ 0.712161 5 4 ack 40 ------- 0 5.0 0.0 1 8
- 0.712161 5 4 ack 40 ------- 0 5.0 0.0 1 8
r 0.713481 5 4 ack 40 ------- 0 5.0 0.0 1 8
h 0.713481 4 6 ack 40 ------- 0 5.0 0.0 1 8
r 0.720481 4 5 tcp 1040 ------- 0 0.0 5.0 2 5
+ 0.720481 5 4 ack 40 ------- 0 5.0 0.0 2 9
- 0.720481 5 4 ack 40 ------- 0 5.0 0.0 2 9
r 0.721801 5 4 ack 40 ------- 0 5.0 0.0 2 9
h 0.721801 4 6 ack 40 ------- 0 5.0 0.0 2 9
r 0.800201 6 3 tcp 1040 ------- 0 2.0 3.0 1 6
h 0.800201 3 6 ack 40 ------- 0 3.0 2.0 1 10
r 0.800372 6 3 tcp 1040 ------- 0 2.0 3.0 2 7
h 0.800372 3 6 ack 40 ------- 0 3.0 2.0 2 11
+ 0.813481 4 6 ack 40 ------- 0 5.0 0.0 1 8
- 0.813481 4 6 ack 40 ------- 0 5.0 0.0 1 8
+ 0.821801 4 6 ack 40 ------- 0 5.0 0.0 2 9
- 0.821801 4 6 ack 40 ------- 0 5.0 0.0 2 9
+ 0.900201 3 6 ack 40 ------- 0 3.0 2.0 1 10
- 0.900201 3 6 ack 40 ------- 0 3.0 2.0 1 10
+ 0.900372 3 6 ack 40 ------- 0 3.0 2.0 2 11
- 0.900372 3 6 ack 40 ------- 0 3.0 2.0 2 11
r 0.913495 6 0 ack 40 ------- 0 5.0 0.0 1 8
h 0.913495 0 6 tcp 1040 ------- 0 0.0 5.0 3 12
h 0.913495 0 6 tcp 1040 ------- 0 0.0 5.0 4 13
r 0.921815 6 0 ack 40 ------- 0 5.0 0.0 2 9
h 0.921815 0 6 tcp 1040 ------- 0 0.0 5.0 5 14
h 0.921815 0 6 tcp 1040 ------- 0 0.0 5.0 6 15
r 1.000215 6 2 ack 40 ------- 0 3.0 2.0 1 10
h 1.000215 2 6 tcp 1040 ------- 0 2.0 3.0 3 16
h 1.000215 2 6 tcp 1040 ------- 0 2.0 3.0 4 17
r 1.000386 6 2 ack 40 ------- 0 3.0 2.0 2 11
h 1.000386 2 6 tcp 1040 ------- 0 2.0 3.0 5 18
h 1.000386 2 6 tcp 1040 ------- 0 2.0 3.0 6 19
+ 1.013495 0 6 tcp 1040 ------- 0 0.0 5.0 3 12
- 1.013495 0 6 tcp 1040 ------- 0 0.0 5.0 3 12
+ 1.013495 0 6 tcp 1040 ------- 0 0.0 5.0 4 13
- 1.013666 0 6 tcp 1040 ------- 0 0.0 5.0 4 13
+ 1.021815 0 6 tcp 1040 ------- 0 0.0 5.0 5 14
- 1.021815 0 6 tcp 1040 ------- 0 0.0 5.0 5 14
+ 1.021815 0 6 tcp 1040 ------- 0 0.0 5.0 6 15
- 1.021986 0 6 tcp 1040 ------- 0 0.0 5.0 6 15
+ 1.100215 2 6 tcp 1040 ------- 0 2.0 3.0 3 16
- 1.100215 2 6 tcp 1040 ------- 0 2.0 3.0 3 16
+ 1.100215 2 6 tcp 1040 ------- 0 2.0 3.0 4 17
+ 1.100386 2 6 tcp 1040 ------- 0 2.0 3.0 5 18
+ 1.100386 2 6 tcp 1040 ------- 0 2.0 3.0 6 19
- 1.100386 2 6 tcp 1040 ------- 0 2.0 3.0 4 17
- 1.100556 2 6 tcp 1040 ------- 0 2.0 3.0 5 18
- 1.100727 2 6 tcp 1040 ------- 0 2.0 3.0 6 19
r 1.113668 6 4 tcp 1040 ------- 0 0.0 5.0 3 12
+ 1.113668 4 5 tcp 1040 ------- 0 0.0 5.0 3 12
- 1.113668 4 5 tcp 1040 ------- 0 0.0 5.0 3 12
r 1.113839 6 4 tcp 1040 ------- 0 0.0 5.0 4 13
+ 1.113839 4 5 tcp 1040 ------- 0 0.0 5.0 4 13
r 1.121988 6 4 tcp 1040 ------- 0 0.0 5.0 5 14
+ 1.121988 4 5 tcp 1040 ------- 0 0.0 5.0 5 14
- 1.121988 4 5 tcp 1040 ------- 0 0.0 5.0 4 13
r 1.122159 6 4 tcp 1040 ------- 0 0.0 5.0 6 15
+ 1.122159 4 5 tcp 1040 ------- 0 0.0 5.0 6 15
r 1.122988 4 5 tcp 1040 ------- 0 0.0 5.0 3 12
+ 1.122988 5 4 ack 40 ------- 0 5.0 0.0 3 20
- 1.122988 5 4 ack 40 ------- 0 5.0 0.0 3 20
r 1.124308 5 4 ack 40 ------- 0 5.0 0.0 3 20
h 1.124308 4 6 ack 40 ------- 0 5.0 0.0 3 20
- 1.130308 4 5 tcp 1040 ------- 0 0.0 5.0 5 14
r 1.131308 4 5 tcp 1040 ------- 0 0.0 5.0 4 13
+ 1.131308 5 4 ack 40 ------- 0 5.0 0.0 4 21
- 1.131308 5 4 ack 40 ------- 0 5.0 0.0 4 21
r 1.132628 5 4 ack 40 ------- 0 5.0 0.0 4 21
h 1.132628 4 6 ack 40 ------- 0 5.0 0.0 4 21
- 1.138628 4 5 tcp 1040 ------- 0 0.0 5.0 6 15
r 1.139628 4 5 tcp 1040 ------- 0 0.0 5.0 5 14
+ 1.139628 5 4 ack 40 ------- 0 5.0 0.0 5 22
- 1.139628 5 4 ack 40 ------- 0 5.0 0.0 5 22
r 1.140948 5 4 ack 40 ------- 0 5.0 0.0 5 22
h 1.140948 4 6 ack 40 ------- 0 5.0 0.0 5 22
r 1.147948 4 5 tcp 1040 ------- 0 0.0 5.0 6 15
+ 1.147948 5 4 ack 40 ------- 0 5.0 0.0 6 23
- 1.147948 5 4 ack 40 ------- 0 5.0 0.0 6 23
r 1.149268 5 4 ack 40 ------- 0 5.0 0.0 6 23
h 1.149268 4 6 ack 40 ------- 0 5.0 0.0 6 23
r 1.200388 6 3 tcp 1040 ------- 0 2.0 3.0 3 16
h 1.200388 3 6 ack 40 ------- 0 3.0 2.0 3 24
r 1.200559 6 3 tcp 1040 ------- 0 2.0 3.0 4 17
h 1.200559 3 6 ack 40 ------- 0 3.0 2.0 4 25
r 1.200729 6 3 tcp 1040 ------- 0 2.0 3.0 5 18
h 1.200729 3 6 ack 40 ------- 0 3.0 2.0 5 26
r 1.2009 6 3 tcp 1040 ------- 0 2.0 3.0 6 19
h 1.2009 3 6 ack 40 ------- 0 3.0 2.0 6 27
+ 1.224308 4 6 ack 40 ------- 0 5.0 0.0 3 20
- 1.224308 4 6 ack 40 ------- 0 5.0 0.0 3 20
+ 1.232628 4 6 ack 40 ------- 0 5.0 0.0 4 21
- 1.232628 4 6 ack 40 ------- 0 5.0 0.0 4 21
+ 1.240948 4 6 ack 40 ------- 0 5.0 0.0 5 22
- 1.240948 4 6 ack 40 ------- 0 5.0 0.0 5 22
+ 1.249268 4 6 ack 40 ------- 0 5.0 0.0 6 23
- 1.249268 4 6 ack 40 ------- 0 5.0 0.0 6 23
+ 1.300388 3 6 ack 40 ------- 0 3.0 2.0 3 24
- 1.300388 3 6 ack 40 ------- 0 3.0 2.0 3 24
+ 1.300559 3 6 ack 40 ------- 0 3.0 2.0 4 25
- 1.300559 3 6 ack 40 ------- 0 3.0 2.0 4 25
+ 1.300729 3 6 ack 40 ------- 0 3.0 2.0 5 26
- 1.300729 3 6 ack 40 ------- 0 3.0 2.0 5 26
+ 1.3009 3 6 ack 40 ------- 0 3.0 2.0 6 27
- 1.3009 3 6 ack 40 ------- 0 3.0 2.0 6 27
r 1.324322 6 0 ack 40 ------- 0 5.0 0.0 3 20
h 1.324322 0 6 tcp 1040 ------- 0 0.0 5.0 7 28
h 1.324322 0 6 tcp 1040 ------- 0 0.0 5.0 8 29
r 1.332642 6 0 ack 40 ------- 0 5.0 0.0 4 21
h 1.332642 0 6 tcp 1040 ------- 0 0.0 5.0 9 30
h 1.332642 0 6 tcp 1040 ------- 0 0.0 5.0 10 31
r 1.340962 6 0 ack 40 ------- 0 5.0 0.0 5 22
h 1.340962 0 6 tcp 1040 ------- 0 0.0 5.0 11 32
h 1.340962 0 6 tcp 1040 ------- 0 0.0 5.0 12 33
r 1.349282 6 0 ack 40 ------- 0 5.0 0.0 6 23
h 1.349282 0 6 tcp 1040 ------- 0 0.0 5.0 13 34
h 1.349282 0 6 tcp 1040 ------- 0 0.0 5.0 14 35
r 1.400402 6 2 ack 40 ------- 0 3.0 2.0 3 24
h 1.400402 2 6 tcp 1040 ------- 0 2.0 3.0 7 36
h 1.400402 2 6 tcp 1040 ------- 0 2.0 3.0 8 37
r 1.400573 6 2 ack 40 ------- 0 3.0 2.0 4 25
h 1.400573 2 6 tcp 1040 ------- 0 2.0 3.0 9 38
h 1.400573 2 6 tcp 1040 ------- 0 2.0 3.0 10 39
r 1.400743 6 2 ack 40 ------- 0 3.0 2.0 5 26
h 1.400743 2 6 tcp 1040 ------- 0 2.0 3.0 11 40
h 1.400743 2 6 tcp 1040 ------- 0 2.0 3.0 12 41
r 1.400914 6 2 ack 40 ------- 0 3.0 2.0 6 27
h 1.400914 2 6 tcp 1040 ------- 0 2.0 3.0 13 42
h 1.400914 2 6 tcp 1040 ------- 0 2.0 3.0 14 43
+ 1.424322 0 6 tcp 1040 ------- 0 0.0 5.0 7 28
- 1.424322 0 6 tcp 1040 ------- 0 0.0 5.0 7 28
+ 1.424322 0 6 tcp 1040 ------- 0 0.0 5.0 8 29
- 1.424493 0 6 tcp 1040 ------- 0 0.0 5.0 8 29
+ 1.432642 0 6 tcp 1040 ------- 0 0.0 5.0 9 30
- 1.432642 0 6 tcp 1040 ------- 0 0.0 5.0 9 30
+ 1.432642 0 6 tcp 1040 ------- 0 0.0 5.0 10 31
- 1.432813 0 6 tcp 1040 ------- 0 0.0 5.0 10 31
+ 1.440962 0 6 tcp 1040 ------- 0 0.0 5.0 11 32
- 1.440962 0 6 tcp 1040 ------- 0 0.0 5.0 11 32
+ 1.440962 0 6 tcp 1040 ------- 0 0.0 5.0 12 33
- 1.441133 0 6 tcp 1040 ------- 0 0.0 5.0 12 33
+ 1.449282 0 6 tcp 1040 ------- 0 0.0 5.0 13 34
- 1.449282 0 6 tcp 1040 ------- 0 0.0 5.0 13 34
+ 1.449282 0 6 tcp 1040 ------- 0 0.0 5.0 14 35
- 1.449453 0 6 tcp 1040 ------- 0 0.0 5.0 14 35
+ 1.500402 2 6 tcp 1040 ------- 0 2.0 3.0 7 36
- 1.500402 2 6 tcp 1040 ------- 0 2.0 3.0 7 36
+ 1.500402 2 6 tcp 1040 ------- 0 2.0 3.0 8 37
+ 1.500573 2 6 tcp 1040 ------- 0 2.0 3.0 9 38
+ 1.500573 2 6 tcp 1040 ------- 0 2.0 3.0 10 39
- 1.500573 2 6 tcp 1040 ------- 0 2.0 3.0 8 37
+ 1.500743 2 6 tcp 1040 ------- 0 2.0 3.0 11 40
+ 1.500743 2 6 tcp 1040 ------- 0 2.0 3.0 12 41
- 1.500743 2 6 tcp 1040 ------- 0 2.0 3.0 9 38
+ 1.500914 2 6 tcp 1040 ------- 0 2.0 3.0 13 42
+ 1.500914 2 6 tcp 1040 ------- 0 2.0 3.0 14 43
- 1.500914 2 6 tcp 1040 ------- 0 2.0 3.0 10 39
- 1.501084 2 6 tcp 1040 ------- 0 2.0 3.0 11 40
- 1.501255 2 6 tcp 1040 ------- 0 2.0 3.0 12 41
- 1.501426 2 6 tcp 1040 ------- 0 2.0 3.0 13 42
- 1.501596 2 6 tcp 1040 ------- 0 2.0 3.0 14 43
r 1.524495 6 4 tcp 1040 ------- 0 0.0 5.0 7 28
+ 1.524495 4 5 tcp 1040 ------- 0 0.0 5.0 7 28
- 1.524495 4 5 tcp 1040 ------- 0 0.0 5.0 7 28
r 1.524665 6 4 tcp 1040 ------- 0 0.0 5.0 8 29
+ 1.524665 4 5 tcp 1040 ------- 0 0.0 5.0 8 29
r 1.532815 6 4 tcp 1040 ------- 0 0.0 5.0 9 30
+ 1.532815 4 5 tcp 1040 ------- 0 0.0 5.0 9 30
- 1.532815 4 5 tcp 1040 ------- 0 0.0 5.0 8 29
r 1.532985 6 4 tcp 1040 ------- 0 0.0 5.0 10 31
+ 1.532985 4 5 tcp 1040 ------- 0 0.0 5.0 10 31
r 1.533815 4 5 tcp 1040 ------- 0 0.0 5.0 7 28
+ 1.533815 5 4 ack 40 ------- 0 5.0 0.0 7 44
- 1.533815 5 4 ack 40 ------- 0 5.0 0.0 7 44
r 1.535135 5 4 ack 40 ------- 0 5.0 0.0 7 44
h 1.535135 4 6 ack 40 ------- 0 5.0 0.0 7 44
r 1.541135 6 4 tcp 1040 ------- 0 0.0 5.0 11 32
+ 1.541135 4 5 tcp 1040 ------- 0 0.0 5.0 11 32
- 1.541135 4 5 tcp 1040 ------- 0 0.0 5.0 9 30
r 1.541305 6 4 tcp 1040 ------- 0 0.0 5.0 12 33
+ 1.541305 4 5 tcp 1040 ------- 0 0.0 5.0 12 33
r 1.542135 4 5 tcp 1040 ------- 0 0.0 5.0 8 29
+ 1.542135 5 4 ack 40 ------- 0 5.0 0.0 8 45
- 1.542135 5 4 ack 40 ------- 0 5.0 0.0 8 45
r 1.543455 5 4 ack 40 ------- 0 5.0 0.0 8 45
h 1.543455 4 6 ack 40 ------- 0 5.0 0.0 8 45
r 1.549455 6 4 tcp 1040 ------- 0 0.0 5.0 13 34
+ 1.549455 4 5 tcp 1040 ------- 0 0.0 5.0 13 34
- 1.549455 4 5 tcp 1040 ------- 0 0.0 5.0 10 31
r 1.549625 6 4 tcp 1040 ------- 0 0.0 5.0 14 35
+ 1.549625 4 5 tcp 1040 ------- 0 0.0 5.0 14 35
r 1.550455 4 5 tcp 1040 ------- 0 0.0 5.0 9 30
+ 1.550455 5 4 ack 40 ------- 0 5.0 0.0 9 46
- 1.550455 5 4 ack 40 ------- 0 5.0 0.0 9 46
r 1.551775 5 4 ack 40 ------- 0 5.0 0.0 9 46
h 1.551775 4 6 ack 40 ------- 0 5.0 0.0 9 46
- 1.557775 4 5 tcp 1040 ------- 0 0.0 5.0 11 32
r 1.558775 4 5 tcp 1040 ------- 0 0.0 5.0 10 31
+ 1.558775 5 4 ack 40 ------- 0 5.0 0.0 10 47
- 1.558775 5 4 ack 40 ------- 0 5.0 0.0 10 47
r 1.560095 5 4 ack 40 ------- 0 5.0 0.0 10 47
h 1.560095 4 6 ack 40 ------- 0 5.0 0.0 10 47
- 1.566095 4 5 tcp 1040 ------- 0 0.0 5.0 12 33
r 1.567095 4 5 tcp 1040 ------- 0 0.0 5.0 11 32
+ 1.567095 5 4 ack 40 ------- 0 5.0 0.0 11 48
- 1.567095 5 4 ack 40 ------- 0 5.0 0.0 11 48
r 1.568415 5 4 ack 40 ------- 0 5.0 0.0 11 48
h 1.568415 4 6 ack 40 ------- 0 5.0 0.0 11 48
- 1.574415 4 5 tcp 1040 ------- 0 0.0 5.0 13 34
r 1.575415 4 5 tcp 1040 ------- 0 0.0 5.0 12 33
+ 1.575415 5 4 ack 40 ------- 0 5.0 0.0 12 49
- 1.575415 5 4 ack 40 ------- 0 5.0 0.0 12 49
r 1.576735 5 4 ack 40 ------- 0 5.0 0.0 12 49
h 1.576735 4 6 ack 40 ------- 0 5.0 0.0 12 49
- 1.582735 4 5 tcp 1040 ------- 0 0.0 5.0 14 35
r 1.583735 4 5 tcp 1040 ------- 0 0.0 5.0 13 34
+ 1.583735 5 4 ack 40 ------- 0 5.0 0.0 13 50
- 1.583735 5 4 ack 40 ------- 0 5.0 0.0 13 50
r 1.585055 5 4 ack 40 ------- 0 5.0 0.0 13 50
h 1.585055 4 6 ack 40 ------- 0 5.0 0.0 13 50
r 1.592055 4 5 tcp 1040 ------- 0 0.0 5.0 14 35
+ 1.592055 5 4 ack 40 ------- 0 5.0 0.0 14 51
- 1.592055 5 4 ack 40 ------- 0 5.0 0.0 14 51
r 1.593375 5 4 ack 40 ------- 0 5.0 0.0 14 51
h 1.593375 4 6 ack 40 ------- 0 5.0 0.0 14 51
r 1.600575 6 3 tcp 1040 ------- 0 2.0 3.0 7 36
h 1.600575 3 6 ack 40 ------- 0 3.0 2.0 7 52
r 1.600745 6 3 tcp 1040 ------- 0 2.0 3.0 8 37
h 1.600745 3 6 ack 40 ------- 0 3.0 2.0 8 53
r 1.600916 6 3 tcp 1040 ------- 0 2.0 3.0 9 38
h 1.600916 3 6 ack 40 ------- 0 3.0 2.0 9 54
r 1.601087 6 3 tcp 1040 ------- 0 2.0 3.0 10 39
h 1.601087 3 6 ack 40 ------- 0 3.0 2.0 10 55
r 1.601257 6 3 tcp 1040 ------- 0 2.0 3.0 11 40
h 1.601257 3 6 ack 40 ------- 0 3.0 2.0 11 56
r 1.601428 6 3 tcp 1040 ------- 0 2.0 3.0 12 41
h 1.601428 3 6 ack 40 ------- 0 3.0 2.0 12 57
r 1.601598 6 3 tcp 1040 ------- 0 2.0 3.0 13 42
h 1.601598 3 6 ack 40 ------- 0 3.0 2.0 13 58
r 1.601769 6 3 tcp 1040 ------- 0 2.0 3.0 14 43
h 1.601769 3 6 ack 40 ------- 0 3.0 2.0 14 59
+ 1.635135 4 6 ack 40 ------- 0 5.0 0.0 7 44
- 1.635135 4 6 ack 40 ------- 0 5.0 0.0 7 44
+ 1.643455 4 6 ack 40 ------- 0 5.0 0.0 8 45
- 1.643455 4 6 ack 40 ------- 0 5.0 0.0 8 45
+ 1.651775 4 6 ack 40 ------- 0 5.0 0.0 9 46
- 1.651775 4 6 ack 40 ------- 0 5.0 0.0 9 46
+ 1.660095 4 6 ack 40 ------- 0 5.0 0.0 10 47
- 1.660095 4 6 ack 40 ------- 0 5.0 0.0 10 47
+ 1.668415 4 6 ack 40 ------- 0 5.0 0.0 11 48
- 1.668415 4 6 ack 40 ------- 0 5.0 0.0 11 48
+ 1.676735 4 6 ack 40 ------- 0 5.0 0.0 12 49
- 1.676735 4 6 ack 40 ------- 0 5.0 0.0 12 49
+ 1.685055 4 6 ack 40 ------- 0 5.0 0.0 13 50
- 1.685055 4 6 ack 40 ------- 0 5.0 0.0 13 50
+ 1.693375 4 6 ack 40 ------- 0 5.0 0.0 14 51
- 1.693375 4 6 ack 40 ------- 0 5.0 0.0 14 51
+ 1.700575 3 6 ack 40 ------- 0 3.0 2.0 7 52
- 1.700575 3 6 ack 40 ------- 0 3.0 2.0 7 52
+ 1.700745 3 6 ack 40 ------- 0 3.0 2.0 8 53
- 1.700745 3 6 ack 40 ------- 0 3.0 2.0 8 53
+ 1.700916 3 6 ack 40 ------- 0 3.0 2.0 9 54
- 1.700916 3 6 ack 40 ------- 0 3.0 2.0 9 54
+ 1.701087 3 6 ack 40 ------- 0 3.0 2.0 10 55
- 1.701087 3 6 ack 40 ------- 0 3.0 2.0 10 55
+ 1.701257 3 6 ack 40 ------- 0 3.0 2.0 11 56
- 1.701257 3 6 ack 40 ------- 0 3.0 2.0 11 56
+ 1.701428 3 6 ack 40 ------- 0 3.0 2.0 12 57
- 1.701428 3 6 ack 40 ------- 0 3.0 2.0 12 57
+ 1.701598 3 6 ack 40 ------- 0 3.0 2.0 13 58
- 1.701598 3 6 ack 40 ------- 0 3.0 2.0 13 58
+ 1.701769 3 6 ack 40 ------- 0 3.0 2.0 14 59
- 1.701769 3 6 ack 40 ------- 0 3.0 2.0 14 59
r 1.735149 6 0 ack 40 ------- 0 5.0 0.0 7 44
h 1.735149 0 6 tcp 1040 ------- 0 0.0 5.0 15 60
h 1.735149 0 6 tcp 1040 ------- 0 0.0 5.0 16 61
r 1.743469 6 0 ack 40 ------- 0 5.0 0.0 8 45
h 1.743469 0 6 tcp 1040 ------- 0 0.0 5.0 17 62
h 1.743469 0 6 tcp 1040 ------- 0 0.0 5.0 18 63
r 1.751789 6 0 ack 40 ------- 0 5.0 0.0 9 46
h 1.751789 0 6 tcp 1040 ------- 0 0.0 5.0 19 64
h 1.751789 0 6 tcp 1040 ------- 0 0.0 5.0 20 65
r 1.760109 6 0 ack 40 ------- 0 5.0 0.0 10 47
h 1.760109 0 6 tcp 1040 ------- 0 0.0 5.0 21 66
h 1.760109 0 6 tcp 1040 ------- 0 0.0 5.0 22 67
r 1.768429 6 0 ack 40 ------- 0 5.0 0.0 11 48
h 1.768429 0 6 tcp 1040 ------- 0 0.0 5.0 23 68
h 1.768429 0 6 tcp 1040 ------- 0 0.0 5.0 24 69
r 1.776749 6 0 ack 40 ------- 0 5.0 0.0 12 49
h 1.776749 0 6 tcp 1040 ------- 0 0.0 5.0 25 70
h 1.776749 0 6 tcp 1040 ------- 0 0.0 5.0 26 71
r 1.785069 6 0 ack 40 ------- 0 5.0 0.0 13 50
h 1.785069 0 6 tcp 1040 ------- 0 0.0 5.0 27 72
h 1.785069 0 6 tcp 1040 ------- 0 0.0 5.0 28 73
r 1.793389 6 0 ack 40 ------- 0 5.0 0.0 14 51
h 1.793389 0 6 tcp 1040 ------- 0 0.0 5.0 29 74
h 1.793389 0 6 tcp 1040 ------- 0 0.0 5.0 30 75
r 1.800589 6 2 ack 40 ------- 0 3.0 2.0 7 52
h 1.800589 2 6 tcp 1040 ------- 0 2.0 3.0 15 76
h 1.800589 2 6 tcp 1040 ------- 0 2.0 3.0 16 77
r 1.80076 6 2 ack 40 ------- 0 3.0 2.0 8 53
h 1.80076 2 6 tcp 1040 ------- 0 2.0 3.0 17 78
h 1.80076 2 6 tcp 1040 ------- 0 2.0 3.0 18 79
r 1.80093 6 2 ack 40 ------- 0 3.0 2.0 9 54
h 1.80093 2 6 tcp 1040 ------- 0 2.0 3.0 19 80
h 1.80093 2 6 tcp 1040 ------- 0 2.0 3.0 20 81
r 1.801101 6 2 ack 40 ------- 0 3.0 2.0 10 55
h 1.801101 2 6 tcp 1040 ------- 0 2.0 3.0 21 82
h 1.801101 2 6 tcp 1040 ------- 0 2.0 3.0 22 83
r 1.801271 6 2 ack 40 ------- 0 3.0 2.0 11 56
h 1.801271 2 6 tcp 1040 ------- 0 2.0 3.0 23 84
h 1.801271 2 6 tcp 1040 ------- 0 2.0 3.0 24 85
r 1.801442 6 2 ack 40 ------- 0 3.0 2.0 12 57
h 1.801442 2 6 tcp 1040 ------- 0 2.0 3.0 25 86
h 1.801442 2 6 tcp 1040 ------- 0 2.0 3.0 26 87
r 1.801612 6 2 ack 40 ------- 0 3.0 2.0 13 58
h 1.801612 2 6 tcp 1040 ------- 0 2.0 3.0 27 88
h 1.801612 2 6 tcp 1040 ------- 0 2.0 3.0 28 89
r 1.801783 6 2 ack 40 ------- 0 3.0 2.0 14 59
h 1.801783 2 6 tcp 1040 ------- 0 2.0 3.0 29 90
h 1.801783 2 6 tcp 1040 ------- 0 2.0 3.0 30 91
+ 1.835149 0 6 tcp 1040 ------- 0 0.0 5.0 15 60
- 1.835149 0 6 tcp 1040 ------- 0 0.0 5.0 15 60
+ 1.835149 0 6 tcp 1040 ------- 0 0.0 5.0 16 61
- 1.83532 0 6 tcp 1040 ------- 0 0.0 5.0 16 61
+ 1.843469 0 6 tcp 1040 ------- 0 0.0 5.0 17 62
- 1.843469 0 6 tcp 1040 ------- 0 0.0 5.0 17 62
+ 1.843469 0 6 tcp 1040 ------- 0 0.0 5.0 18 63
- 1.84364 0 6 tcp 1040 ------- 0 0.0 5.0 18 63
+ 1.851789 0 6 tcp 1040 ------- 0 0.0 5.0 19 64
- 1.851789 0 6 tcp 1040 ------- 0 0.0 5.0 19 64
+ 1.851789 0 6 tcp 1040 ------- 0 0.0 5.0 20 65
- 1.85196 0 6 tcp 1040 ------- 0 0.0 5.0 20 65
+ 1.860109 0 6 tcp 1040 ------- 0 0.0 5.0 21 66
- 1.860109 0 6 tcp 1040 ------- 0 0.0 5.0 21 66
+ 1.860109 0 6 tcp 1040 ------- 0 0.0 5.0 22 67
- 1.86028 0 6 tcp 1040 ------- 0 0.0 5.0 22 67
+ 1.868429 0 6 tcp 1040 ------- 0 0.0 5.0 23 68
- 1.868429 0 6 tcp 1040 ------- 0 0.0 5.0 23 68
+ 1.868429 0 6 tcp 1040 ------- 0 0.0 5.0 24 69
- 1.8686 0 6 tcp 1040 ------- 0 0.0 5.0 24 69
+ 1.876749 0 6 tcp 1040 ------- 0 0.0 5.0 25 70
- 1.876749 0 6 tcp 1040 ------- 0 0.0 5.0 25 70
+ 1.876749 0 6 tcp 1040 ------- 0 0.0 5.0 26 71
- 1.87692 0 6 tcp 1040 ------- 0 0.0 5.0 26 71
+ 1.885069 0 6 tcp 1040 ------- 0 0.0 5.0 27 72
- 1.885069 0 6 tcp 1040 ------- 0 0.0 5.0 27 72
+ 1.885069 0 6 tcp 1040 ------- 0 0.0 5.0 28 73
- 1.88524 0 6 tcp 1040 ------- 0 0.0 5.0 28 73
+ 1.893389 0 6 tcp 1040 ------- 0 0.0 5.0 29 74
- 1.893389 0 6 tcp 1040 ------- 0 0.0 5.0 29 74
+ 1.893389 0 6 tcp 1040 ------- 0 0.0 5.0 30 75
- 1.89356 0 6 tcp 1040 ------- 0 0.0 5.0 30 75
+ 1.900589 2 6 tcp 1040 ------- 0 2.0 3.0 15 76
- 1.900589 2 6 tcp 1040 ------- 0 2.0 3.0 15 76
+ 1.900589 2 6 tcp 1040 ------- 0 2.0 3.0 16 77
+ 1.90076 2 6 tcp 1040 ------- 0 2.0 3.0 17 78
+ 1.90076 2 6 tcp 1040 ------- 0 2.0 3.0 18 79
- 1.90076 2 6 tcp 1040 ------- 0 2.0 3.0 16 77
+ 1.90093 2 6 tcp 1040 ------- 0 2.0 3.0 19 80
+ 1.90093 2 6 tcp 1040 ------- 0 2.0 3.0 20 81
- 1.90093 2 6 tcp 1040 ------- 0 2.0 3.0 17 78
+ 1.901101 2 6 tcp 1040 ------- 0 2.0 3.0 21 82
+ 1.901101 2 6 tcp 1040 ------- 0 2.0 3.0 22 83
- 1.901101 2 6 tcp 1040 ------- 0 2.0 3.0 18 79
+ 1.901271 2 6 tcp 1040 ------- 0 2.0 3.0 23 84
+ 1.901271 2 6 tcp 1040 ------- 0 2.0 3.0 24 85
- 1.901271 2 6 tcp 1040 ------- 0 2.0 3.0 19 80
+ 1.901442 2 6 tcp 1040 ------- 0 2.0 3.0 25 86
+ 1.901442 2 6 tcp 1040 ------- 0 2.0 3.0 26 87
- 1.901442 2 6 tcp 1040 ------- 0 2.0 3.0 20 81
+ 1.901612 2 6 tcp 1040 ------- 0 2.0 3.0 27 88
+ 1.901612 2 6 tcp 1040 ------- 0 2.0 3.0 28 89
- 1.901612 2 6 tcp 1040 ------- 0 2.0 3.0 21 82
+ 1.901783 2 6 tcp 1040 ------- 0 2.0 3.0 29 90
+ 1.901783 2 6 tcp 1040 ------- 0 2.0 3.0 30 91
- 1.901783 2 6 tcp 1040 ------- 0 2.0 3.0 22 83
- 1.901954 2 6 tcp 1040 ------- 0 2.0 3.0 23 84
- 1.902124 2 6 tcp 1040 ------- 0 2.0 3.0 24 85
- 1.902295 2 6 tcp 1040 ------- 0 2.0 3.0 25 86
- 1.902465 2 6 tcp 1040 ------- 0 2.0 3.0 26 87
- 1.902636 2 6 tcp 1040 ------- 0 2.0 3.0 27 88
- 1.902806 2 6 tcp 1040 ------- 0 2.0 3.0 28 89
- 1.902977 2 6 tcp 1040 ------- 0 2.0 3.0 29 90
- 1.903148 2 6 tcp 1040 ------- 0 2.0 3.0 30 91
r 1.935322 6 4 tcp 1040 ------- 0 0.0 5.0 15 60
+ 1.935322 4 5 tcp 1040 ------- 0 0.0 5.0 15 60
- 1.935322 4 5 tcp 1040 ------- 0 0.0 5.0 15 60
r 1.935492 6 4 tcp 1040 ------- 0 0.0 5.0 16 61
+ 1.935492 4 5 tcp 1040 ------- 0 0.0 5.0 16 61
r 1.943642 6 4 tcp 1040 ------- 0 0.0 5.0 17 62
+ 1.943642 4 5 tcp 1040 ------- 0 0.0 5.0 17 62
- 1.943642 4 5 tcp 1040 ------- 0 0.0 5.0 16 61
r 1.943812 6 4 tcp 1040 ------- 0 0.0 5.0 18 63
+ 1.943812 4 5 tcp 1040 ------- 0 0.0 5.0 18 63
r 1.944642 4 5 tcp 1040 ------- 0 0.0 5.0 15 60
+ 1.944642 5 4 ack 40 ------- 0 5.0 0.0 15 92
- 1.944642 5 4 ack 40 ------- 0 5.0 0.0 15 92
r 1.945962 5 4 ack 40 ------- 0 5.0 0.0 15 92
h 1.945962 4 6 ack 40 ------- 0 5.0 0.0 15 92
r 1.951962 6 4 tcp 1040 ------- 0 0.0 5.0 19 64
+ 1.951962 4 5 tcp 1040 ------- 0 0.0 5.0 19 64
- 1.951962 4 5 tcp 1040 ------- 0 0.0 5.0 17 62
r 1.952132 6 4 tcp 1040 ------- 0 0.0 5.0 20 65
+ 1.952132 4 5 tcp 1040 ------- 0 0.0 5.0 20 65
r 1.952962 4 5 tcp 1040 ------- 0 0.0 5.0 16 61
+ 1.952962 5 4 ack 40 ------- 0 5.0 0.0 16 93
- 1.952962 5 4 ack 40 ------- 0 5.0 0.0 16 93
r 1.954282 5 4 ack 40 ------- 0 5.0 0.0 16 93
h 1.954282 4 6 ack 40 ------- 0 5.0 0.0 16 93
r 1.960282 6 4 tcp 1040 ------- 0 0.0 5.0 21 66
+ 1.960282 4 5 tcp 1040 ------- 0 0.0 5.0 21 66
- 1.960282 4 5 tcp 1040 ------- 0 0.0 5.0 18 63
r 1.960452 6 4 tcp 1040 ------- 0 0.0 5.0 22 67
+ 1.960452 4 5 tcp 1040 ------- 0 0.0 5.0 22 67
r 1.961282 4 5 tcp 1040 ------- 0 0.0 5.0 17 62
+ 1.961282 5 4 ack 40 ------- 0 5.0 0.0 17 94
- 1.961282 5 4 ack 40 ------- 0 5.0 0.0 17 94
r 1.962602 5 4 ack 40 ------- 0 5.0 0.0 17 94
h 1.962602 4 6 ack 40 ------- 0 5.0 0.0 17 94
r 1.968602 6 4 tcp 1040 ------- 0 0.0 5.0 23 68
+ 1.968602 4 5 tcp 1040 ------- 0 0.0 5.0 23 68
- 1.968602 4 5 tcp 1040 ------- 0 0.0 5.0 19 64
r 1.968772 6 4 tcp 1040 ------- 0 0.0 5.0 24 69
+ 1.968772 4 5 tcp 1040 ------- 0 0.0 5.0 24 69
r 1.969602 4 5 tcp 1040 ------- 0 0.0 5.0 18 63
+ 1.969602 5 4 ack 40 ------- 0 5.0 0.0 18 95
- 1.969602 5 4 ack 40 ------- 0 5.0 0.0 18 95
r 1.970922 5 4 ack 40 ------- 0 5.0 0.0 18 95
h 1.970922 4 6 ack 40 ------- 0 5.0 0.0 18 95
r 1.976922 6 4 tcp 1040 ------- 0 0.0 5.0 25 70
+ 1.976922 4 5 tcp 1040 ------- 0 0.0 5.0 25 70
- 1.976922 4 5 tcp 1040 ------- 0 0.0 5.0 20 65
r 1.977092 6 4 tcp 1040 ------- 0 0.0 5.0 26 71
+ 1.977092 4 5 tcp 1040 ------- 0 0.0 5.0 26 71
r 1.977922 4 5 tcp 1040 ------- 0 0.0 5.0 19 64
+ 1.977922 5 4 ack 40 ------- 0 5.0 0.0 19 96
- 1.977922 5 4 ack 40 ------- 0 5.0 0.0 19 96
r 1.979242 5 4 ack 40 ------- 0 5.0 0.0 19 96
h 1.979242 4 6 ack 40 ------- 0 5.0 0.0 19 96
r 1.985242 6 4 tcp 1040 ------- 0 0.0 5.0 27 72
+ 1.985242 4 5 tcp 1040 ------- 0 0.0 5.0 27 72
- 1.985242 4 5 tcp 1040 ------- 0 0.0 5.0 21 66
r 1.985412 6 4 tcp 1040 ------- 0 0.0 5.0 28 73
+ 1.985412 4 5 tcp 1040 ------- 0 0.0 5.0 28 73
r 1.986242 4 5 tcp 1040 ------- 0 0.0 5.0 20 65
+ 1.986242 5 4 ack 40 ------- 0 5.0 0.0 20 97
- 1.986242 5 4 ack 40 ------- 0 5.0 0.0 20 97
r 1.987562 5 4 ack 40 ------- 0 5.0 0.0 20 97
h 1.987562 4 6 ack 40 ------- 0 5.0 0.0 20 97
r 1.993562 6 4 tcp 1040 ------- 0 0.0 5.0 29 74
+ 1.993562 4 5 tcp 1040 ------- 0 0.0 5.0 29 74
- 1.993562 4 5 tcp 1040 ------- 0 0.0 5.0 22 67
r 1.993732 6 4 tcp 1040 ------- 0 0.0 5.0 30 75
+ 1.993732 4 5 tcp 1040 ------- 0 0.0 5.0 30 75
r 1.994562 4 5 tcp 1040 ------- 0 0.0 5.0 21 66
+ 1.994562 5 4 ack 40 ------- 0 5.0 0.0 21 98
- 1.994562 5 4 ack 40 ------- 0 5.0 0.0 21 98
r 1.995882 5 4 ack 40 ------- 0 5.0 0.0 21 98
h 1.995882 4 6 ack 40 ------- 0 5.0 0.0 21 98
r 2.000762 6 3 tcp 1040 ------- 0 2.0 3.0 15 76
h 2.000762 3 6 ack 40 ------- 0 3.0 2.0 15 99
r 2.000932 6 3 tcp 1040 ------- 0 2.0 3.0 16 77
h 2.000932 3 6 ack 40 ------- 0 3.0 2.0 16 100
r 2.001103 6 3 tcp 1040 ------- 0 2.0 3.0 17 78
h 2.001103 3 6 ack 40 ------- 0 3.0 2.0 17 101
r 2.001273 6 3 tcp 1040 ------- 0 2.0 3.0 18 79
h 2.001273 3 6 ack 40 ------- 0 3.0 2.0 18 102
r 2.001444 6 3 tcp 1040 ------- 0 2.0 3.0 19 80
h 2.001444 3 6 ack 40 ------- 0 3.0 2.0 19 103
r 2.001615 6 3 tcp 1040 ------- 0 2.0 3.0 20 81
h 2.001615 3 6 ack 40 ------- 0 3.0 2.0 20 104
r 2.001785 6 3 tcp 1040 ------- 0 2.0 3.0 21 82
h 2.001785 3 6 ack 40 ------- 0 3.0 2.0 21 105
- 2.001882 4 5 tcp 1040 ------- 0 0.0 5.0 23 68
r 2.001956 6 3 tcp 1040 ------- 0 2.0 3.0 22 83
h 2.001956 3 6 ack 40 ------- 0 3.0 2.0 22 106
r 2.002126 6 3 tcp 1040 ------- 0 2.0 3.0 23 84
h 2.002126 3 6 ack 40 ------- 0 3.0 2.0 23 107
r 2.002297 6 3 tcp 1040 ------- 0 2.0 3.0 24 85
h 2.002297 3 6 ack 40 ------- 0 3.0 2.0 24 108
r 2.002467 6 3 tcp 1040 ------- 0 2.0 3.0 25 86
h 2.002467 3 6 ack 40 ------- 0 3.0 2.0 25 109
r 2.002638 6 3 tcp 1040 ------- 0 2.0 3.0 26 87
h 2.002638 3 6 ack 40 ------- 0 3.0 2.0 26 110
r 2.002808 6 3 tcp 1040 ------- 0 2.0 3.0 27 88
h 2.002808 3 6 ack 40 ------- 0 3.0 2.0 27 111
r 2.002882 4 5 tcp 1040 ------- 0 0.0 5.0 22 67
+ 2.002882 5 4 ack 40 ------- 0 5.0 0.0 22 112
- 2.002882 5 4 ack 40 ------- 0 5.0 0.0 22 112
r 2.002979 6 3 tcp 1040 ------- 0 2.0 3.0 28 89
h 2.002979 3 6 ack 40 ------- 0 3.0 2.0 28 113
r 2.00315 6 3 tcp 1040 ------- 0 2.0 3.0 29 90
h 2.00315 3 6 ack 40 ------- 0 3.0 2.0 29 114
r 2.00332 6 3 tcp 1040 ------- 0 2.0 3.0 30 91
h 2.00332 3 6 ack 40 ------- 0 3.0 2.0 30 115
r 2.004202 5 4 ack 40 ------- 0 5.0 0.0 22 112
h 2.004202 4 6 ack 40 ------- 0 5.0 0.0 22 112
- 2.010202 4 5 tcp 1040 ------- 0 0.0 5.0 24 69
r 2.011202 4 5 tcp 1040 ------- 0 0.0 5.0 23 68
+ 2.011202 5 4 ack 40 ------- 0 5.0 0.0 23 116
- 2.011202 5 4 ack 40 ------- 0 5.0 0.0 23 116
r 2.012522 5 4 ack 40 ------- 0 5.0 0.0 23 116
h 2.012522 4 6 ack 40 ------- 0 5.0 0.0 23 116
- 2.018522 4 5 tcp 1040 ------- 0 0.0 5.0 25 70
r 2.019522 4 5 tcp 1040 ------- 0 0.0 5.0 24 69
+ 2.019522 5 4 ack 40 ------- 0 5.0 0.0 24 117
- 2.019522 5 4 ack 40 ------- 0 5.0 0.0 24 117
r 2.020842 5 4 ack 40 ------- 0 5.0 0.0 24 117
h 2.020842 4 6 ack 40 ------- 0 5.0 0.0 24 117
- 2.026842 4 5 tcp 1040 ------- 0 0.0 5.0 26 71
r 2.027842 4 5 tcp 1040 ------- 0 0.0 5.0 25 70
+ 2.027842 5 4 ack 40 ------- 0 5.0 0.0 25 118
- 2.027842 5 4 ack 40 ------- 0 5.0 0.0 25 118
r 2.029162 5 4 ack 40 ------- 0 5.0 0.0 25 118
h 2.029162 4 6 ack 40 ------- 0 5.0 0.0 25 118
- 2.035162 4 5 tcp 1040 ------- 0 0.0 5.0 27 72
r 2.036162 4 5 tcp 1040 ------- 0 0.0 5.0 26 71
+ 2.036162 5 4 ack 40 ------- 0 5.0 0.0 26 119
- 2.036162 5 4 ack 40 ------- 0 5.0 0.0 26 119
r 2.037482 5 4 ack 40 ------- 0 5.0 0.0 26 119
h 2.037482 4 6 ack 40 ------- 0 5.0 0.0 26 119
- 2.043482 4 5 tcp 1040 ------- 0 0.0 5.0 28 73
r 2.044482 4 5 tcp 1040 ------- 0 0.0 5.0 27 72
+ 2.044482 5 4 ack 40 ------- 0 5.0 0.0 27 120
- 2.044482 5 4 ack 40 ------- 0 5.0 0.0 27 120
r 2.045802 5 4 ack 40 ------- 0 5.0 0.0 27 120
h 2.045802 4 6 ack 40 ------- 0 5.0 0.0 27 120
+ 2.045962 4 6 ack 40 ------- 0 5.0 0.0 15 92
- 2.045962 4 6 ack 40 ------- 0 5.0 0.0 15 92
- 2.051802 4 5 tcp 1040 ------- 0 0.0 5.0 29 74
r 2.052802 4 5 tcp 1040 ------- 0 0.0 5.0 28 73
+ 2.052802 5 4 ack 40 ------- 0 5.0 0.0 28 121
- 2.052802 5 4 ack 40 ------- 0 5.0 0.0 28 121
r 2.054122 5 4 ack 40 ------- 0 5.0 0.0 28 121
h 2.054122 4 6 ack 40 ------- 0 5.0 0.0 28 121
+ 2.054282 4 6 ack 40 ------- 0 5.0 0.0 16 93
- 2.054282 4 6 ack 40 ------- 0 5.0 0.0 16 93
- 2.060122 4 5 tcp 1040 ------- 0 0.0 5.0 30 75
r 2.061122 4 5 tcp 1040 ------- 0 0.0 5.0 29 74
+ 2.061122 5 4 ack 40 ------- 0 5.0 0.0 29 122
- 2.061122 5 4 ack 40 ------- 0 5.0 0.0 29 122
r 2.062442 5 4 ack 40 ------- 0 5.0 0.0 29 122
h 2.062442 4 6 ack 40 ------- 0 5.0 0.0 29 122
+ 2.062602 4 6 ack 40 ------- 0 5.0 0.0 17 94
- 2.062602 4 6 ack 40 ------- 0 5.0 0.0 17 94
r 2.069442 4 5 tcp 1040 ------- 0 0.0 5.0 30 75
+ 2.069442 5 4 ack 40 ------- 0 5.0 0.0 30 123
- 2.069442 5 4 ack 40 ------- 0 5.0 0.0 30 123
r 2.070762 5 4 ack 40 ------- 0 5.0 0.0 30 123
h 2.070762 4 6 ack 40 ------- 0 5.0 0.0 30 123
+ 2.070922 4 6 ack 40 ------- 0 5.0 0.0 18 95
- 2.070922 4 6 ack 40 ------- 0 5.0 0.0 18 95
+ 2.079242 4 6 ack 40 ------- 0 5.0 0.0 19 96
- 2.079242 4 6 ack 40 ------- 0 5.0 0.0 19 96
+ 2.087562 4 6 ack 40 ------- 0 5.0 0.0 20 97
- 2.087562 4 6 ack 40 ------- 0 5.0 0.0 20 97
+ 2.095882 4 6 ack 40 ------- 0 5.0 0.0 21 98
- 2.095882 4 6 ack 40 ------- 0 5.0 0.0 21 98
+ 2.100762 3 6 ack 40 ------- 0 3.0 2.0 15 99
- 2.100762 3 6 ack 40 ------- 0 3.0 2.0 15 99
+ 2.100932 3 6 ack 40 ------- 0 3.0 2.0 16 100
- 2.100932 3 6 ack 40 ------- 0 3.0 2.0 16 100
+ 2.101103 3 6 ack 40 ------- 0 3.0 2.0 17 101
- 2.101103 3 6 ack 40 ------- 0 3.0 2.0 17 101
+ 2.101273 3 6 ack 40 ------- 0 3.0 2.0 18 102
- 2.101273 3 6 ack 40 ------- 0 3.0 2.0 18 102
+ 2.101444 3 6 ack 40 ------- 0 3.0 2.0 19 103
- 2.101444 3 6 ack 40 ------- 0 3.0 2.0 19 103
+ 2.101615 3 6 ack 40 ------- 0 3.0 2.0 20 104
- 2.101615 3 6 ack 40 ------- 0 3.0 2.0 20 104
+ 2.101785 3 6 ack 40 ------- 0 3.0 2.0 21 105
- 2.101785 3 6 ack 40 ------- 0 3.0 2.0 21 105
+ 2.101956 3 6 ack 40 ------- 0 3.0 2.0 22 106
- 2.101956 3 6 ack 40 ------- 0 3.0 2.0 22 106
+ 2.102126 3 6 ack 40 ------- 0 3.0 2.0 23 107
- 2.102126 3 6 ack 40 ------- 0 3.0 2.0 23 107
+ 2.102297 3 6 ack 40 ------- 0 3.0 2.0 24 108
- 2.102297 3 6 ack 40 ------- 0 3.0 2.0 24 108
+ 2.102467 3 6 ack 40 ------- 0 3.0 2.0 25 109
- 2.102467 3 6 ack 40 ------- 0 3.0 2.0 25 109
+ 2.102638 3 6 ack 40 ------- 0 3.0 2.0 26 110
- 2.102638 3 6 ack 40 ------- 0 3.0 2.0 26 110
+ 2.102808 3 6 ack 40 ------- 0 3.0 2.0 27 111
- 2.102808 3 6 ack 40 ------- 0 3.0 2.0 27 111
+ 2.102979 3 6 ack 40 ------- 0 3.0 2.0 28 113
- 2.102979 3 6 ack 40 ------- 0 3.0 2.0 28 113
+ 2.10315 3 6 ack 40 ------- 0 3.0 2.0 29 114
- 2.10315 3 6 ack 40 ------- 0 3.0 2.0 29 114
+ 2.10332 3 6 ack 40 ------- 0 3.0 2.0 30 115
- 2.10332 3 6 ack 40 ------- 0 3.0 2.0 30 115
+ 2.104202 4 6 ack 40 ------- 0 5.0 0.0 22 112
- 2.104202 4 6 ack 40 ------- 0 5.0 0.0 22 112
+ 2.112522 4 6 ack 40 ------- 0 5.0 0.0 23 116
- 2.112522 4 6 ack 40 ------- 0 5.0 0.0 23 116
+ 2.120842 4 6 ack 40 ------- 0 5.0 0.0 24 117
- 2.120842 4 6 ack 40 ------- 0 5.0 0.0 24 117
+ 2.129162 4 6 ack 40 ------- 0 5.0 0.0 25 118
- 2.129162 4 6 ack 40 ------- 0 5.0 0.0 25 118
+ 2.137482 4 6 ack 40 ------- 0 5.0 0.0 26 119
- 2.137482 4 6 ack 40 ------- 0 5.0 0.0 26 119
+ 2.145802 4 6 ack 40 ------- 0 5.0 0.0 27 120