n -t 0 -s 0 -S DLABEL -l "Source/udp0" -L ""
n -t 0 -s 1 -S DLABEL -l "Source/udp1" -L ""
n -t 0 -s 2 -S DLABEL -l "Router" -L ""
n -t 0 -s 3 -S DLABEL -l "Destination/Null" -L ""
V -t * -v 1.0a5 -a 0
A -t * -n 1 -p 0 -o 0x7fffffff -c 30 -a 1
A -t * -h 1 -m 1073741823 -s 0
c -t * -i 1 -n red
c -t * -i 2 -n blue
n -t * -a 0 -s 0 -S UP -v circle -c black -i black
n -t * -a 1 -s 1 -S UP -v circle -c black -i black
n -t * -a 2 -s 2 -S UP -v circle -c black -i black
n -t * -a 3 -s 3 -S UP -v circle -c black -i black
l -t * -s 0 -d 2 -S UP -r 100000000 -D 0.29999999999999999 -c black
l -t * -s 1 -d 2 -S UP -r 100000000 -D 0.29999999999999999 -c black
l -t * -s 2 -d 3 -S UP -r 1000000 -D 0.29999999999999999 -c black
+ -t 0.5 -s 0 -d 2 -p cbr -e 500 -c 0 -i 0 -a 0 -x {0.0 3.0 0 ------- null}
- -t 0.5 -s 0 -d 2 -p cbr -e 500 -c 0 -i 0 -a 0 -x {0.0 3.0 0 ------- null}
h -t 0.5 -s 0 -d 2 -p cbr -e 500 -c 0 -i 0 -a 0 -x {0.0 3.0 -1 ------- null}
+ -t 0.505 -s 0 -d 2 -p cbr -e 500 -c 0 -i 1 -a 0 -x {0.0 3.0 1 ------- null}
- -t 0.505 -s 0 -d 2 -p cbr -e 500 -c 0 -i 1 -a 0 -x {0.0 3.0 1 ------- null}
h -t 0.505 -s 0 -d 2 -p cbr -e 500 -c 0 -i 1 -a 0 -x {0.0 3.0 -1 ------- null}
+ -t 0.51 -s 0 -d 2 -p cbr -e 500 -c 0 -i 2 -a 0 -x {0.0 3.0 2 ------- null}
- -t 0.51 -s 0 -d 2 -p cbr -e 500 -c 0 -i 2 -a 0 -x {0.0 3.0 2 ------- null}
h -t 0.51 -s 0 -d 2 -p cbr -e 500 -c 0 -i 2 -a 0 -x {0.0 3.0 -1 ------- null}
+ -t 0.515 -s 0 -d 2 -p cbr -e 500 -c 0 -i 3 -a 0 -x {0.0 3.0 3 ------- null}
- -t 0.515 -s 0 -d 2 -p cbr -e 500 -c 0 -i 3 -a 0 -x {0.0 3.0 3 ------- null}
h -t 0.515 -s 0 -d 2 -p cbr -e 500 -c 0 -i 3 -a 0 -x {0.0 3.0 -1 ------- null}
+ -t 0.52 -s 0 -d 2 -p cbr -e 500 -c 0 -i 4 -a 0 -x {0.0 3.0 4 ------- null}
- -t 0.52 -s 0 -d 2 -p cbr -e 500 -c 0 -i 4 -a 0 -x {0.0 3.0 4 ------- null}
h -t 0.52 -s 0 -d 2 -p cbr -e 500 -c 0 -i 4 -a 0 -x {0.0 3.0 -1 ------- null}
+ -t 0.525 -s 0 -d 2 -p cbr -e 500 -c 0 -i 5 -a 0 -x {0.0 3.0 5 ------- null}
- -t 0.525 -s 0 -d 2 -p cbr -e 500 -c 0 -i 5 -a 0 -x {0.0 3.0 5 ------- null}
h -t 0.525 -s 0 -d 2 -p cbr -e 500 -c 0 -i 5 -a 0 -x {0.0 3.0 -1 ------- null}
+ -t 0.53 -s 0 -d 2 -p cbr -e 500 -c 0 -i 6 -a 0 -x {0.0 3.0 6 ------- null}
- -t 0.53 -s 0 -d 2 -p cbr -e 500 -c 0 -i 6 -a 0 -x {0.0 3.0 6 ------- null}
h -t 0.53 -s 0 -d 2 -p cbr -e 500 -c 0 -i 6 -a 0 -x {0.0 3.0 -1 ------- null}
+ -t 0.535 -s 0 -d 2 -p cbr -e 500 -c 0 -i 7 -a 0 -x {0.0 3.0 7 ------- null}
- -t 0.535 -s 0 -d 2 -p cbr -e 500 -c 0 -i 7 -a 0 -x {0.0 3.0 7 ------- null}
h -t 0.535 -s 0 -d 2 -p cbr -e 500 -c 0 -i 7 -a 0 -x {0.0 3.0 -1 ------- null}
+ -t 0.54 -s 0 -d 2 -p cbr -e 500 -c 0 -i 8 -a 0 -x {0.0 3.0 8 ------- null}
- -t 0.54 -s 0 -d 2 -p cbr -e 500 -c 0 -i 8 -a 0 -x {0.0 3.0 8 ------- null}
h -t 0.54 -s 0 -d 2 -p cbr -e 500 -c 0 -i 8 -a 0 -x {0.0 3.0 -1 ------- null}
+ -t 0.545 -s 0 -d 2 -p cbr -e 500 -c 0 -i 9 -a 0 -x {0.0 3.0 9 ------- null}
- -t 0.545 -s 0 -d 2 -p cbr -e 500 -c 0 -i 9 -a 0 -x {0.0 3.0 9 ------- null}
h -t 0.545 -s 0 -d 2 -p cbr -e 500 -c 0 -i 9 -a 0 -x {0.0 3.0 -1 ------- null}
+ -t 0.55 -s 0 -d 2 -p cbr -e 500 -c 0 -i 10 -a 0 -x {0.0 3.0 10 ------- null}
- -t 0.55 -s 0 -d 2 -p cbr -e 500 -c 0 -i 10 -a 0 -x {0.0 3.0 10 ------- null}
h -t 0.55 -s 0 -d 2 -p cbr -e 500 -c 0 -i 10 -a 0 -x {0.0 3.0 -1 ------- null}
+ -t 0.555 -s 0 -d 2 -p cbr -e 500 -c 0 -i 11 -a 0 -x {0.0 3.0 11 ------- null}
- -t 0.555 -s 0 -d 2 -p cbr -e 500 -c 0 -i 11 -a 0 -x {0.0 3.0 11 ------- null}
h -t 0.555 -s 0 -d 2 -p cbr -e 500 -c 0 -i 11 -a 0 -x {0.0 3.0 -1 ------- null}
+ -t 0.56 -s 0 -d 2 -p cbr -e 500 -c 0 -i 12 -a 0 -x {0.0 3.0 12 ------- null}
- -t 0.56 -s 0 -d 2 -p cbr -e 500 -c 0 -i 12 -a 0 -x {0.0 3.0 12 ------- null}
h -t 0.56 -s 0 -d 2 -p cbr -e 500 -c 0 -i 12 -a 0 -x {0.0 3.0 -1 ------- null}
+ -t 0.565 -s 0 -d 2 -p cbr -e 500 -c 0 -i 13 -a 0 -x {0.0 3.0 13 ------- null}
- -t 0.565 -s 0 -d 2 -p cbr -e 500 -c 0 -i 13 -a 0 -x {0.0 3.0 13 ------- null}
h -t 0.565 -s 0 -d 2 -p cbr -e 500 -c 0 -i 13 -a 0 -x {0.0 3.0 -1 ------- null}
+ -t 0.57 -s 0 -d 2 -p cbr -e 500 -c 0 -i 14 -a 0 -x {0.0 3.0 14 ------- null}
- -t 0.57 -s 0 -d 2 -p cbr -e 500 -c 0 -i 14 -a 0 -x {0.0 3.0 14 ------- null}
h -t 0.57 -s 0 -d 2 -p cbr -e 500 -c 0 -i 14 -a 0 -x {0.0 3.0 -1 ------- null}
+ -t 0.575 -s 0 -d 2 -p cbr -e 500 -c 0 -i 15 -a 0 -x {0.0 3.0 15 ------- null}
- -t 0.575 -s 0 -d 2 -p cbr -e 500 -c 0 -i 15 -a 0 -x {0.0 3.0 15 ------- null}
h -t 0.575 -s 0 -d 2 -p cbr -e 500 -c 0 -i 15 -a 0 -x {0.0 3.0 -1 ------- null}
+ -t 0.58 -s 0 -d 2 -p cbr -e 500 -c 0 -i 16 -a 0 -x {0.0 3.0 16 ------- null}
- -t 0.58 -s 0 -d 2 -p cbr -e 500 -c 0 -i 16 -a 0 -x {0.0 3.0 16 ------- null}
h -t 0.58 -s 0 -d 2 -p cbr -e 500 -c 0 -i 16 -a 0 -x {0.0 3.0 -1 ------- null}
+ -t 0.585 -s 0 -d 2 -p cbr -e 500 -c 0 -i 17 -a 0 -x {0.0 3.0 17 ------- null}
- -t 0.585 -s 0 -d 2 -p cbr -e 500 -c 0 -i 17 -a 0 -x {0.0 3.0 17 ------- null}
h -t 0.585 -s 0 -d 2 -p cbr -e 500 -c 0 -i 17 -a 0 -x {0.0 3.0 -1 ------- null}
+ -t 0.59 -s 0 -d 2 -p cbr -e 500 -c 0 -i 18 -a 0 -x {0.0 3.0 18 ------- null}
- -t 0.59 -s 0 -d 2 -p cbr -e 500 -c 0 -i 18 -a 0 -x {0.0 3.0 18 ------- null}
h -t 0.59 -s 0 -d 2 -p cbr -e 500 -c 0 -i 18 -a 0 -x {0.0 3.0 -1 ------- null}
+ -t 0.595 -s 0 -d 2 -p cbr -e 500 -c 0 -i 19 -a 0 -x {0.0 3.0 19 ------- null}
- -t 0.595 -s 0 -d 2 -p cbr -e 500 -c 0 -i 19 -a 0 -x {0.0 3.0 19 ------- null}
h -t 0.595 -s 0 -d 2 -p cbr -e 500 -c 0 -i 19 -a 0 -x {0.0 3.0 -1 ------- null}
+ -t 0.6 -s 0 -d 2 -p cbr -e 500 -c 0 -i 20 -a 0 -x {0.0 3.0 20 ------- null}
- -t 0.6 -s 0 -d 2 -p cbr -e 500 -c 0 -i 20 -a 0 -x {0.0 3.0 20 ------- null}
h -t 0.6 -s 0 -d 2 -p cbr -e 500 -c 0 -i 20 -a 0 -x {0.0 3.0 -1 ------- null}
+ -t 0.605 -s 0 -d 2 -p cbr -e 500 -c 0 -i 21 -a 0 -x {0.0 3.0 21 ------- null}
- -t 0.605 -s 0 -d 2 -p cbr -e 500 -c 0 -i 21 -a 0 -x {0.0 3.0 21 ------- null}
h -t 0.605 -s 0 -d 2 -p cbr -e 500 -c 0 -i 21 -a 0 -x {0.0 3.0 -1 ------- null}
+ -t 0.61 -s 0 -d 2 -p cbr -e 500 -c 0 -i 22 -a 0 -x {0.0 3.0 22 ------- null}
- -t 0.61 -s 0 -d 2 -p cbr -e 500 -c 0 -i 22 -a 0 -x {0.0 3.0 22 ------- null}
h -t 0.61 -s 0 -d 2 -p cbr -e 500 -c 0 -i 22 -a 0 -x {0.0 3.0 -1 ------- null}
+ -t 0.615 -s 0 -d 2 -p cbr -e 500 -c 0 -i 23 -a 0 -x {0.0 3.0 23 ------- null}
- -t 0.615 -s 0 -d 2 -p cbr -e 500 -c 0 -i 23 -a 0 -x {0.0 3.0 23 ------- null}
h -t 0.615 -s 0 -d 2 -p cbr -e 500 -c 0 -i 23 -a 0 -x {0.0 3.0 -1 ------- null}
+ -t 0.62 -s 0 -d 2 -p cbr -e 500 -c 0 -i 24 -a 0 -x {0.0 3.0 24 ------- null}
- -t 0.62 -s 0 -d 2 -p cbr -e 500 -c 0 -i 24 -a 0 -x {0.0 3.0 24 ------- null}
h -t 0.62 -s 0 -d 2 -p cbr -e 500 -c 0 -i 24 -a 0 -x {0.0 3.0 -1 ------- null}
+ -t 0.625 -s 0 -d 2 -p cbr -e 500 -c 0 -i 25 -a 0 -x {0.0 3.0 25 ------- null}
- -t 0.625 -s 0 -d 2 -p cbr -e 500 -c 0 -i 25 -a 0 -x {0.0 3.0 25 ------- null}
h -t 0.625 -s 0 -d 2 -p cbr -e 500 -c 0 -i 25 -a 0 -x {0.0 3.0 -1 ------- null}
+ -t 0.63 -s 0 -d 2 -p cbr -e 500 -c 0 -i 26 -a 0 -x {0.0 3.0 26 ------- null}
- -t 0.63 -s 0 -d 2 -p cbr -e 500 -c 0 -i 26 -a 0 -x {0.0 3.0 26 ------- null}
h -t 0.63 -s 0 -d 2 -p cbr -e 500 -c 0 -i 26 -a 0 -x {0.0 3.0 -1 ------- null}
+ -t 0.635 -s 0 -d 2 -p cbr -e 500 -c 0 -i 27 -a 0 -x {0.0 3.0 27 ------- null}
- -t 0.635 -s 0 -d 2 -p cbr -e 500 -c 0 -i 27 -a 0 -x {0.0 3.0 27 ------- null}
h -t 0.635 -s 0 -d 2 -p cbr -e 500 -c 0 -i 27 -a 0 -x {0.0 3.0 -1 ------- null}
+ -t 0.64 -s 0 -d 2 -p cbr -e 500 -c 0 -i 28 -a 0 -x {0.0 3.0 28 ------- null}
- -t 0.64 -s 0 -d 2 -p cbr -e 500 -c 0 -i 28 -a 0 -x {0.0 3.0 28 ------- null}
h -t 0.64 -s 0 -d 2 -p cbr -e 500 -c 0 -i 28 -a 0 -x {0.0 3.0 -1 ------- null}
+ -t 0.645 -s 0 -d 2 -p cbr -e 500 -c 0 -i 29 -a 0 -x {0.0 3.0 29 ------- null}
- -t 0.645 -s 0 -d 2 -p cbr -e 500 -c 0 -i 29 -a 0 -x {0.0 3.0 29 ------- null}
h -t 0.645 -s 0 -d 2 -p cbr -e 500 -c 0 -i 29 -a 0 -x {0.0 3.0 -1 ------- null}
+ -t 0.65 -s 0 -d 2 -p cbr -e 500 -c 0 -i 30 -a 0 -x {0.0 3.0 30 ------- null}
- -t 0.65 -s 0 -d 2 -p cbr -e 500 -c 0 -i 30 -a 0 -x {0.0 3.0 30 ------- null}
h -t 0.65 -s 0 -d 2 -p cbr -e 500 -c 0 -i 30 -a 0 -x {0.0 3.0 -1 ------- null}
+ -t 0.655 -s 0 -d 2 -p cbr -e 500 -c 0 -i 31 -a 0 -x {0.0 3.0 31 ------- null}
- -t 0.655 -s 0 -d 2 -p cbr -e 500 -c 0 -i 31 -a 0 -x {0.0 3.0 31 ------- null}
h -t 0.655 -s 0 -d 2 -p cbr -e 500 -c 0 -i 31 -a 0 -x {0.0 3.0 -1 ------- null}
+ -t 0.66 -s 0 -d 2 -p cbr -e 500 -c 0 -i 32 -a 0 -x {0.0 3.0 32 ------- null}
- -t 0.66 -s 0 -d 2 -p cbr -e 500 -c 0 -i 32 -a 0 -x {0.0 3.0 32 ------- null}
h -t 0.66 -s 0 -d 2 -p cbr -e 500 -c 0 -i 32 -a 0 -x {0.0 3.0 -1 ------- null}
+ -t 0.665 -s 0 -d 2 -p cbr -e 500 -c 0 -i 33 -a 0 -x {0.0 3.0 33 ------- null}
- -t 0.665 -s 0 -d 2 -p cbr -e 500 -c 0 -i 33 -a 0 -x {0.0 3.0 33 ------- null}
h -t 0.665 -s 0 -d 2 -p cbr -e 500 -c 0 -i 33 -a 0 -x {0.0 3.0 -1 ------- null}
+ -t 0.67 -s 0 -d 2 -p cbr -e 500 -c 0 -i 34 -a 0 -x {0.0 3.0 34 ------- null}
- -t 0.67 -s 0 -d 2 -p cbr -e 500 -c 0 -i 34 -a 0 -x {0.0 3.0 34 ------- null}
h -t 0.67 -s 0 -d 2 -p cbr -e 500 -c 0 -i 34 -a 0 -x {0.0 3.0 -1 ------- null}
+ -t 0.675 -s 0 -d 2 -p cbr -e 500 -c 0 -i 35 -a 0 -x {0.0 3.0 35 ------- null}
- -t 0.675 -s 0 -d 2 -p cbr -e 500 -c 0 -i 35 -a 0 -x {0.0 3.0 35 ------- null}
h -t 0.675 -s 0 -d 2 -p cbr -e 500 -c 0 -i 35 -a 0 -x {0.0 3.0 -1 ------- null}
+ -t 0.68 -s 0 -d 2 -p cbr -e 500 -c 0 -i 36 -a 0 -x {0.0 3.0 36 ------- null}
- -t 0.68 -s 0 -d 2 -p cbr -e 500 -c 0 -i 36 -a 0 -x {0.0 3.0 36 ------- null}
h -t 0.68 -s 0 -d 2 -p cbr -e 500 -c 0 -i 36 -a 0 -x {0.0 3.0 -1 ------- null}
+ -t 0.685 -s 0 -d 2 -p cbr -e 500 -c 0 -i 37 -a 0 -x {0.0 3.0 37 ------- null}
- -t 0.685 -s 0 -d 2 -p cbr -e 500 -c 0 -i 37 -a 0 -x {0.0 3.0 37 ------- null}
h -t 0.685 -s 0 -d 2 -p cbr -e 500 -c 0 -i 37 -a 0 -x {0.0 3.0 -1 ------- null}
+ -t 0.69 -s 0 -d 2 -p cbr -e 500 -c 0 -i 38 -a 0 -x {0.0 3.0 38 ------- null}
- -t 0.69 -s 0 -d 2 -p cbr -e 500 -c 0 -i 38 -a 0 -x {0.0 3.0 38 ------- null}
h -t 0.69 -s 0 -d 2 -p cbr -e 500 -c 0 -i 38 -a 0 -x {0.0 3.0 -1 ------- null}
+ -t 0.695 -s 0 -d 2 -p cbr -e 500 -c 0 -i 39 -a 0 -x {0.0 3.0 39 ------- null}
- -t 0.695 -s 0 -d 2 -p cbr -e 500 -c 0 -i 39 -a 0 -x {0.0 3.0 39 ------- null}
h -t 0.695 -s 0 -d 2 -p cbr -e 500 -c 0 -i 39 -a 0 -x {0.0 3.0 -1 ------- null}
+ -t 0.7 -s 0 -d 2 -p cbr -e 500 -c 0 -i 40 -a 0 -x {0.0 3.0 40 ------- null}
- -t 0.7 -s 0 -d 2 -p cbr -e 500 -c 0 -i 40 -a 0 -x {0.0 3.0 40 ------- null}
h -t 0.7 -s 0 -d 2 -p cbr -e 500 -c 0 -i 40 -a 0 -x {0.0 3.0 -1 ------- null}
+ -t 0.705 -s 0 -d 2 -p cbr -e 500 -c 0 -i 41 -a 0 -x {0.0 3.0 41 ------- null}
- -t 0.705 -s 0 -d 2 -p cbr -e 500 -c 0 -i 41 -a 0 -x {0.0 3.0 41 ------- null}
h -t 0.705 -s 0 -d 2 -p cbr -e 500 -c 0 -i 41 -a 0 -x {0.0 3.0 -1 ------- null}
+ -t 0.71 -s 0 -d 2 -p cbr -e 500 -c 0 -i 42 -a 0 -x {0.0 3.0 42 ------- null}
- -t 0.71 -s 0 -d 2 -p cbr -e 500 -c 0 -i 42 -a 0 -x {0.0 3.0 42 ------- null}
h -t 0.71 -s 0 -d 2 -p cbr -e 500 -c 0 -i 42 -a 0 -x {0.0 3.0 -1 ------- null}
+ -t 0.715 -s 0 -d 2 -p cbr -e 500 -c 0 -i 43 -a 0 -x {0.0 3.0 43 ------- null}
- -t 0.715 -s 0 -d 2 -p cbr -e 500 -c 0 -i 43 -a 0 -x {0.0 3.0 43 ------- null}
h -t 0.715 -s 0 -d 2 -p cbr -e 500 -c 0 -i 43 -a 0 -x {0.0 3.0 -1 ------- null}
+ -t 0.72 -s 0 -d 2 -p cbr -e 500 -c 0 -i 44 -a 0 -x {0.0 3.0 44 ------- null}
- -t 0.72 -s 0 -d 2 -p cbr -e 500 -c 0 -i 44 -a 0 -x {0.0 3.0 44 ------- null}
h -t 0.72 -s 0 -d 2 -p cbr -e 500 -c 0 -i 44 -a 0 -x {0.0 3.0 -1 ------- null}
+ -t 0.725 -s 0 -d 2 -p cbr -e 500 -c 0 -i 45 -a 0 -x {0.0 3.0 45 ------- null}
- -t 0.725 -s 0 -d 2 -p cbr -e 500 -c 0 -i 45 -a 0 -x {0.0 3.0 45 ------- null}
h -t 0.725 -s 0 -d 2 -p cbr -e 500 -c 0 -i 45 -a 0 -x {0.0 3.0 -1 ------- null}
+ -t 0.73 -s 0 -d 2 -p cbr -e 500 -c 0 -i 46 -a 0 -x {0.0 3.0 46 ------- null}
- -t 0.73 -s 0 -d 2 -p cbr -e 500 -c 0 -i 46 -a 0 -x {0.0 3.0 46 ------- null}
h -t 0.73 -s 0 -d 2 -p cbr -e 500 -c 0 -i 46 -a 0 -x {0.0 3.0 -1 ------- null}
+ -t 0.735 -s 0 -d 2 -p cbr -e 500 -c 0 -i 47 -a 0 -x {0.0 3.0 47 ------- null}
- -t 0.735 -s 0 -d 2 -p cbr -e 500 -c 0 -i 47 -a 0 -x {0.0 3.0 47 ------- null}
h -t 0.735 -s 0 -d 2 -p cbr -e 500 -c 0 -i 47 -a 0 -x {0.0 3.0 -1 ------- null}
+ -t 0.74 -s 0 -d 2 -p cbr -e 500 -c 0 -i 48 -a 0 -x {0.0 3.0 48 ------- null}
- -t 0.74 -s 0 -d 2 -p cbr -e 500 -c 0 -i 48 -a 0 -x {0.0 3.0 48 ------- null}
h -t 0.74 -s 0 -d 2 -p cbr -e 500 -c 0 -i 48 -a 0 -x {0.0 3.0 -1 ------- null}
+ -t 0.745 -s 0 -d 2 -p cbr -e 500 -c 0 -i 49 -a 0 -x {0.0 3.0 49 ------- null}
- -t 0.745 -s 0 -d 2 -p cbr -e 500 -c 0 -i 49 -a 0 -x {0.0 3.0 49 ------- null}
h -t 0.745 -s 0 -d 2 -p cbr -e 500 -c 0 -i 49 -a 0 -x {0.0 3.0 -1 ------- null}
+ -t 0.75 -s 0 -d 2 -p cbr -e 500 -c 0 -i 50 -a 0 -x {0.0 3.0 50 ------- null}
- -t 0.75 -s 0 -d 2 -p cbr -e 500 -c 0 -i 50 -a 0 -x {0.0 3.0 50 ------- null}
h -t 0.75 -s 0 -d 2 -p cbr -e 500 -c 0 -i 50 -a 0 -x {0.0 3.0 -1 ------- null}
+ -t 0.755 -s 0 -d 2 -p cbr -e 500 -c 0 -i 51 -a 0 -x {0.0 3.0 51 ------- null}
- -t 0.755 -s 0 -d 2 -p cbr -e 500 -c 0 -i 51 -a 0 -x {0.0 3.0 51 ------- null}
h -t 0.755 -s 0 -d 2 -p cbr -e 500 -c 0 -i 51 -a 0 -x {0.0 3.0 -1 ------- null}
+ -t 0.76 -s 0 -d 2 -p cbr -e 500 -c 0 -i 52 -a 0 -x {0.0 3.0 52 ------- null}
- -t 0.76 -s 0 -d 2 -p cbr -e 500 -c 0 -i 52 -a 0 -x {0.0 3.0 52 ------- null}
h -t 0.76 -s 0 -d 2 -p cbr -e 500 -c 0 -i 52 -a 0 -x {0.0 3.0 -1 ------- null}
+ -t 0.765 -s 0 -d 2 -p cbr -e 500 -c 0 -i 53 -a 0 -x {0.0 3.0 53 ------- null}
- -t 0.765 -s 0 -d 2 -p cbr -e 500 -c 0 -i 53 -a 0 -x {0.0 3.0 53 ------- null}
h -t 0.765 -s 0 -d 2 -p cbr -e 500 -c 0 -i 53 -a 0 -x {0.0 3.0 -1 ------- null}
+ -t 0.77 -s 0 -d 2 -p cbr -e 500 -c 0 -i 54 -a 0 -x {0.0 3.0 54 ------- null}
- -t 0.77 -s 0 -d 2 -p cbr -e 500 -c 0 -i 54 -a 0 -x {0.0 3.0 54 ------- null}
h -t 0.77 -s 0 -d 2 -p cbr -e 500 -c 0 -i 54 -a 0 -x {0.0 3.0 -1 ------- null}
+ -t 0.775 -s 0 -d 2 -p cbr -e 500 -c 0 -i 55 -a 0 -x {0.0 3.0 55 ------- null}
- -t 0.775 -s 0 -d 2 -p cbr -e 500 -c 0 -i 55 -a 0 -x {0.0 3.0 55 ------- null}
h -t 0.775 -s 0 -d 2 -p cbr -e 500 -c 0 -i 55 -a 0 -x {0.0 3.0 -1 ------- null}
+ -t 0.78 -s 0 -d 2 -p cbr -e 500 -c 0 -i 56 -a 0 -x {0.0 3.0 56 ------- null}
- -t 0.78 -s 0 -d 2 -p cbr -e 500 -c 0 -i 56 -a 0 -x {0.0 3.0 56 ------- null}
h -t 0.78 -s 0 -d 2 -p cbr -e 500 -c 0 -i 56 -a 0 -x {0.0 3.0 -1 ------- null}
+ -t 0.785 -s 0 -d 2 -p cbr -e 500 -c 0 -i 57 -a 0 -x {0.0 3.0 57 ------- null}
- -t 0.785 -s 0 -d 2 -p cbr -e 500 -c 0 -i 57 -a 0 -x {0.0 3.0 57 ------- null}
h -t 0.785 -s 0 -d 2 -p cbr -e 500 -c 0 -i 57 -a 0 -x {0.0 3.0 -1 ------- null}
+ -t 0.79 -s 0 -d 2 -p cbr -e 500 -c 0 -i 58 -a 0 -x {0.0 3.0 58 ------- null}
- -t 0.79 -s 0 -d 2 -p cbr -e 500 -c 0 -i 58 -a 0 -x {0.0 3.0 58 ------- null}
h -t 0.79 -s 0 -d 2 -p cbr -e 500 -c 0 -i 58 -a 0 -x {0.0 3.0 -1 ------- null}
+ -t 0.795 -s 0 -d 2 -p cbr -e 500 -c 0 -i 59 -a 0 -x {0.0 3.0 59 ------- null}
- -t 0.795 -s 0 -d 2 -p cbr -e 500 -c 0 -i 59 -a 0 -x {0.0 3.0 59 ------- null}
h -t 0.795 -s 0 -d 2 -p cbr -e 500 -c 0 -i 59 -a 0 -x {0.0 3.0 -1 ------- null}
+ -t 0.8 -s 0 -d 2 -p cbr -e 500 -c 0 -i 60 -a 0 -x {0.0 3.0 60 ------- null}
- -t 0.8 -s 0 -d 2 -p cbr -e 500 -c 0 -i 60 -a 0 -x {0.0 3.0 60 ------- null}
h -t 0.8 -s 0 -d 2 -p cbr -e 500 -c 0 -i 60 -a 0 -x {0.0 3.0 -1 ------- null}
r -t 0.80004 -s 0 -d 2 -p cbr -e 500 -c 0 -i 0 -a 0 -x {0.0 3.0 0 ------- null}
+ -t 0.80004 -s 2 -d 3 -p cbr -e 500 -c 0 -i 0 -a 0 -x {0.0 3.0 0 ------- null}
- -t 0.80004 -s 2 -d 3 -p cbr -e 500 -c 0 -i 0 -a 0 -x {0.0 3.0 0 ------- null}
h -t 0.80004 -s 2 -d 3 -p cbr -e 500 -c 0 -i 0 -a 0 -x {0.0 3.0 -1 ------- null}
+ -t 0.805 -s 0 -d 2 -p cbr -e 500 -c 0 -i 61 -a 0 -x {0.0 3.0 61 ------- null}
- -t 0.805 -s 0 -d 2 -p cbr -e 500 -c 0 -i 61 -a 0 -x {0.0 3.0 61 ------- null}
h -t 0.805 -s 0 -d 2 -p cbr -e 500 -c 0 -i 61 -a 0 -x {0.0 3.0 -1 ------- null}
r -t 0.80504 -s 0 -d 2 -p cbr -e 500 -c 0 -i 1 -a 0 -x {0.0 3.0 1 ------- null}
+ -t 0.80504 -s 2 -d 3 -p cbr -e 500 -c 0 -i 1 -a 0 -x {0.0 3.0 1 ------- null}
- -t 0.80504 -s 2 -d 3 -p cbr -e 500 -c 0 -i 1 -a 0 -x {0.0 3.0 1 ------- null}
h -t 0.80504 -s 2 -d 3 -p cbr -e 500 -c 0 -i 1 -a 0 -x {0.0 3.0 -1 ------- null}
+ -t 0.81 -s 0 -d 2 -p cbr -e 500 -c 0 -i 62 -a 0 -x {0.0 3.0 62 ------- null}
- -t 0.81 -s 0 -d 2 -p cbr -e 500 -c 0 -i 62 -a 0 -x {0.0 3.0 62 ------- null}
h -t 0.81 -s 0 -d 2 -p cbr -e 500 -c 0 -i 62 -a 0 -x {0.0 3.0 -1 ------- null}
r -t 0.81004 -s 0 -d 2 -p cbr -e 500 -c 0 -i 2 -a 0 -x {0.0 3.0 2 ------- null}
+ -t 0.81004 -s 2 -d 3 -p cbr -e 500 -c 0 -i 2 -a 0 -x {0.0 3.0 2 ------- null}
- -t 0.81004 -s 2 -d 3 -p cbr -e 500 -c 0 -i 2 -a 0 -x {0.0 3.0 2 ------- null}
h -t 0.81004 -s 2 -d 3 -p cbr -e 500 -c 0 -i 2 -a 0 -x {0.0 3.0 -1 ------- null}
+ -t 0.815 -s 0 -d 2 -p cbr -e 500 -c 0 -i 63 -a 0 -x {0.0 3.0 63 ------- null}
- -t 0.815 -s 0 -d 2 -p cbr -e 500 -c 0 -i 63 -a 0 -x {0.0 3.0 63 ------- null}
h -t 0.815 -s 0 -d 2 -p cbr -e 500 -c 0 -i 63 -a 0 -x {0.0 3.0 -1 ------- null}
r -t 0.81504 -s 0 -d 2 -p cbr -e 500 -c 0 -i 3 -a 0 -x {0.0 3.0 3 ------- null}
+ -t 0.81504 -s 2 -d 3 -p cbr -e 500 -c 0 -i 3 -a 0 -x {0.0 3.0 3 ------- null}
- -t 0.81504 -s 2 -d 3 -p cbr -e 500 -c 0 -i 3 -a 0 -x {0.0 3.0 3 ------- null}
h -t 0.81504 -s 2 -d 3 -p cbr -e 500 -c 0 -i 3 -a 0 -x {0.0 3.0 -1 ------- null}
+ -t 0.82 -s 0 -d 2 -p cbr -e 500 -c 0 -i 64 -a 0 -x {0.0 3.0 64 ------- null}
- -t 0.82 -s 0 -d 2 -p cbr -e 500 -c 0 -i 64 -a 0 -x {0.0 3.0 64 ------- null}
h -t 0.82 -s 0 -d 2 -p cbr -e 500 -c 0 -i 64 -a 0 -x {0.0 3.0 -1 ------- null}
r -t 0.82004 -s 0 -d 2 -p cbr -e 500 -c 0 -i 4 -a 0 -x {0.0 3.0 4 ------- null}
+ -t 0.82004 -s 2 -d 3 -p cbr -e 500 -c 0 -i 4 -a 0 -x {0.0 3.0 4 ------- null}
- -t 0.82004 -s 2 -d 3 -p cbr -e 500 -c 0 -i 4 -a 0 -x {0.0 3.0 4 ------- null}
h -t 0.82004 -s 2 -d 3 -p cbr -e 500 -c 0 -i 4 -a 0 -x {0.0 3.0 -1 ------- null}
+ -t 0.825 -s 0 -d 2 -p cbr -e 500 -c 0 -i 65 -a 0 -x {0.0 3.0 65 ------- null}
- -t 0.825 -s 0 -d 2 -p cbr -e 500 -c 0 -i 65 -a 0 -x {0.0 3.0 65 ------- null}
h -t 0.825 -s 0 -d 2 -p cbr -e 500 -c 0 -i 65 -a 0 -x {0.0 3.0 -1 ------- null}
r -t 0.82504 -s 0 -d 2 -p cbr -e 500 -c 0 -i 5 -a 0 -x {0.0 3.0 5 ------- null}
+ -t 0.82504 -s 2 -d 3 -p cbr -e 500 -c 0 -i 5 -a 0 -x {0.0 3.0 5 ------- null}
- -t 0.82504 -s 2 -d 3 -p cbr -e 500 -c 0 -i 5 -a 0 -x {0.0 3.0 5 ------- null}
h -t 0.82504 -s 2 -d 3 -p cbr -e 500 -c 0 -i 5 -a 0 -x {0.0 3.0 -1 ------- null}
+ -t 0.83 -s 0 -d 2 -p cbr -e 500 -c 0 -i 66 -a 0 -x {0.0 3.0 66 ------- null}
- -t 0.83 -s 0 -d 2 -p cbr -e 500 -c 0 -i 66 -a 0 -x {0.0 3.0 66 ------- null}
h -t 0.83 -s 0 -d 2 -p cbr -e 500 -c 0 -i 66 -a 0 -x {0.0 3.0 -1 ------- null}
r -t 0.83004 -s 0 -d 2 -p cbr -e 500 -c 0 -i 6 -a 0 -x {0.0 3.0 6 ------- null}
+ -t 0.83004 -s 2 -d 3 -p cbr -e 500 -c 0 -i 6 -a 0 -x {0.0 3.0 6 ------- null}
- -t 0.83004 -s 2 -d 3 -p cbr -e 500 -c 0 -i 6 -a 0 -x {0.0 3.0 6 ------- null}
h -t 0.83004 -s 2 -d 3 -p cbr -e 500 -c 0 -i 6 -a 0 -x {0.0 3.0 -1 ------- null}
+ -t 0.835 -s 0 -d 2 -p cbr -e 500 -c 0 -i 67 -a 0 -x {0.0 3.0 67 ------- null}
- -t 0.835 -s 0 -d 2 -p cbr -e 500 -c 0 -i 67 -a 0 -x {0.0 3.0 67 ------- null}
h -t 0.835 -s 0 -d 2 -p cbr -e 500 -c 0 -i 67 -a 0 -x {0.0 3.0 -1 ------- null}
r -t 0.83504 -s 0 -d 2 -p cbr -e 500 -c 0 -i 7 -a 0 -x {0.0 3.0 7 ------- null}
+ -t 0.83504 -s 2 -d 3 -p cbr -e 500 -c 0 -i 7 -a 0 -x {0.0 3.0 7 ------- null}
- -t 0.83504 -s 2 -d 3 -p cbr -e 500 -c 0 -i 7 -a 0 -x {0.0 3.0 7 ------- null}
h -t 0.83504 -s 2 -d 3 -p cbr -e 500 -c 0 -i 7 -a 0 -x {0.0 3.0 -1 ------- null}
+ -t 0.84 -s 0 -d 2 -p cbr -e 500 -c 0 -i 68 -a 0 -x {0.0 3.0 68 ------- null}
- -t 0.84 -s 0 -d 2 -p cbr -e 500 -c 0 -i 68 -a 0 -x {0.0 3.0 68 ------- null}
h -t 0.84 -s 0 -d 2 -p cbr -e 500 -c 0 -i 68 -a 0 -x {0.0 3.0 -1 ------- null}
r -t 0.84004 -s 0 -d 2 -p cbr -e 500 -c 0 -i 8 -a 0 -x {0.0 3.0 8 ------- null}
+ -t 0.84004 -s 2 -d 3 -p cbr -e 500 -c 0 -i 8 -a 0 -x {0.0 3.0 8 ------- null}
- -t 0.84004 -s 2 -d 3 -p cbr -e 500 -c 0 -i 8 -a 0 -x {0.0 3.0 8 ------- null}
h -t 0.84004 -s 2 -d 3 -p cbr -e 500 -c 0 -i 8 -a 0 -x {0.0 3.0 -1 ------- null}
+ -t 0.845 -s 0 -d 2 -p cbr -e 500 -c 0 -i 69 -a 0 -x {0.0 3.0 69 ------- null}
- -t 0.845 -s 0 -d 2 -p cbr -e 500 -c 0 -i 69 -a 0 -x {0.0 3.0 69 ------- null}
h -t 0.845 -s 0 -d 2 -p cbr -e 500 -c 0 -i 69 -a 0 -x {0.0 3.0 -1 ------- null}
r -t 0.84504 -s 0 -d 2 -p cbr -e 500 -c 0 -i 9 -a 0 -x {0.0 3.0 9 ------- null}
+ -t 0.84504 -s 2 -d 3 -p cbr -e 500 -c 0 -i 9 -a 0 -x {0.0 3.0 9 ------- null}
- -t 0.84504 -s 2 -d 3 -p cbr -e 500 -c 0 -i 9 -a 0 -x {0.0 3.0 9 ------- null}
h -t 0.84504 -s 2 -d 3 -p cbr -e 500 -c 0 -i 9 -a 0 -x {0.0 3.0 -1 ------- null}
+ -t 0.85 -s 0 -d 2 -p cbr -e 500 -c 0 -i 70 -a 0 -x {0.0 3.0 70 ------- null}
- -t 0.85 -s 0 -d 2 -p cbr -e 500 -c 0 -i 70 -a 0 -x {0.0 3.0 70 ------- null}
h -t 0.85 -s 0 -d 2 -p cbr -e 500 -c 0 -i 70 -a 0 -x {0.0 3.0 -1 ------- null}
r -t 0.85004 -s 0 -d 2 -p cbr -e 500 -c 0 -i 10 -a 0 -x {0.0 3.0 10 ------- null}
+ -t 0.85004 -s 2 -d 3 -p cbr -e 500 -c 0 -i 10 -a 0 -x {0.0 3.0 10 ------- null}
- -t 0.85004 -s 2 -d 3 -p cbr -e 500 -c 0 -i 10 -a 0 -x {0.0 3.0 10 ------- null}
h -t 0.85004 -s 2 -d 3 -p cbr -e 500 -c 0 -i 10 -a 0 -x {0.0 3.0 -1 ------- null}
+ -t 0.855 -s 0 -d 2 -p cbr -e 500 -c 0 -i 71 -a 0 -x {0.0 3.0 71 ------- null}
- -t 0.855 -s 0 -d 2 -p cbr -e 500 -c 0 -i 71 -a 0 -x {0.0 3.0 71 ------- null}
h -t 0.855 -s 0 -d 2 -p cbr -e 500 -c 0 -i 71 -a 0 -x {0.0 3.0 -1 ------- null}
r -t 0.85504 -s 0 -d 2 -p cbr -e 500 -c 0 -i 11 -a 0 -x {0.0 3.0 11 ------- null}
+ -t 0.85504 -s 2 -d 3 -p cbr -e 500 -c 0 -i 11 -a 0 -x {0.0 3.0 11 ------- null}
- -t 0.85504 -s 2 -d 3 -p cbr -e 500 -c 0 -i 11 -a 0 -x {0.0 3.0 11 ------- null}
h -t 0.85504 -s 2 -d 3 -p cbr -e 500 -c 0 -i 11 -a 0 -x {0.0 3.0 -1 ------- null}
+ -t 0.86 -s 0 -d 2 -p cbr -e 500 -c 0 -i 72 -a 0 -x {0.0 3.0 72 ------- null}
- -t 0.86 -s 0 -d 2 -p cbr -e 500 -c 0 -i 72 -a 0 -x {0.0 3.0 72 ------- null}
h -t 0.86 -s 0 -d 2 -p cbr -e 500 -c 0 -i 72 -a 0 -x {0.0 3.0 -1 ------- null}
r -t 0.86004 -s 0 -d 2 -p cbr -e 500 -c 0 -i 12 -a 0 -x {0.0 3.0 12 ------- null}
+ -t 0.86004 -s 2 -d 3 -p cbr -e 500 -c 0 -i 12 -a 0 -x {0.0 3.0 12 ------- null}
- -t 0.86004 -s 2 -d 3 -p cbr -e 500 -c 0 -i 12 -a 0 -x {0.0 3.0 12 ------- null}
h -t 0.86004 -s 2 -d 3 -p cbr -e 500 -c 0 -i 12 -a 0 -x {0.0 3.0 -1 ------- null}
+ -t 0.865 -s 0 -d 2 -p cbr -e 500 -c 0 -i 73 -a 0 -x {0.0 3.0 73 ------- null}
- -t 0.865 -s 0 -d 2 -p cbr -e 500 -c 0 -i 73 -a 0 -x {0.0 3.0 73 ------- null}
h -t 0.865 -s 0 -d 2 -p cbr -e 500 -c 0 -i 73 -a 0 -x {0.0 3.0 -1 ------- null}
r -t 0.86504 -s 0 -d 2 -p cbr -e 500 -c 0 -i 13 -a 0 -x {0.0 3.0 13 ------- null}
+ -t 0.86504 -s 2 -d 3 -p cbr -e 500 -c 0 -i 13 -a 0 -x {0.0 3.0 13 ------- null}
- -t 0.86504 -s 2 -d 3 -p cbr -e 500 -c 0 -i 13 -a 0 -x {0.0 3.0 13 ------- null}
h -t 0.86504 -s 2 -d 3 -p cbr -e 500 -c 0 -i 13 -a 0 -x {0.0 3.0 -1 ------- null}
+ -t 0.87 -s 0 -d 2 -p cbr -e 500 -c 0 -i 74 -a 0 -x {0.0 3.0 74 ------- null}
- -t 0.87 -s 0 -d 2 -p cbr -e 500 -c 0 -i 74 -a 0 -x {0.0 3.0 74 ------- null}
h -t 0.87 -s 0 -d 2 -p cbr -e 500 -c 0 -i 74 -a 0 -x {0.0 3.0 -1 ------- null}
r -t 0.87004 -s 0 -d 2 -p cbr -e 500 -c 0 -i 14 -a 0 -x {0.0 3.0 14 ------- null}
+ -t 0.87004 -s 2 -d 3 -p cbr -e 500 -c 0 -i 14 -a 0 -x {0.0 3.0 14 ------- null}
- -t 0.87004 -s 2 -d 3 -p cbr -e 500 -c 0 -i 14 -a 0 -x {0.0 3.0 14 ------- null}
h -t 0.87004 -s 2 -d 3 -p cbr -e 500 -c 0 -i 14 -a 0 -x {0.0 3.0 -1 ------- null}
+ -t 0.875 -s 0 -d 2 -p cbr -e 500 -c 0 -i 75 -a 0 -x {0.0 3.0 75 ------- null}
- -t 0.875 -s 0 -d 2 -p cbr -e 500 -c 0 -i 75 -a 0 -x {0.0 3.0 75 ------- null}
h -t 0.875 -s 0 -d 2 -p cbr -e 500 -c 0 -i 75 -a 0 -x {0.0 3.0 -1 ------- null}
r -t 0.87504 -s 0 -d 2 -p cbr -e 500 -c 0 -i 15 -a 0 -x {0.0 3.0 15 ------- null}
+ -t 0.87504 -s 2 -d 3 -p cbr -e 500 -c 0 -i 15 -a 0 -x {0.0 3.0 15 ------- null}
- -t 0.87504 -s 2 -d 3 -p cbr -e 500 -c 0 -i 15 -a 0 -x {0.0 3.0 15 ------- null}
h -t 0.87504 -s 2 -d 3 -p cbr -e 500 -c 0 -i 15 -a 0 -x {0.0 3.0 -1 ------- null}
+ -t 0.88 -s 0 -d 2 -p cbr -e 500 -c 0 -i 76 -a 0 -x {0.0 3.0 76 ------- null}
- -t 0.88 -s 0 -d 2 -p cbr -e 500 -c 0 -i 76 -a 0 -x {0.0 3.0 76 ------- null}
h -t 0.88 -s 0 -d 2 -p cbr -e 500 -c 0 -i 76 -a 0 -x {0.0 3.0 -1 ------- null}
r -t 0.88004 -s 0 -d 2 -p cbr -e 500 -c 0 -i 16 -a 0 -x {0.0 3.0 16 ------- null}
+ -t 0.88004 -s 2 -d 3 -p cbr -e 500 -c 0 -i 16 -a 0 -x {0.0 3.0 16 ------- null}
- -t 0.88004 -s 2 -d 3 -p cbr -e 500 -c 0 -i 16 -a 0 -x {0.0 3.0 16 ------- null}
h -t 0.88004 -s 2 -d 3 -p cbr -e 500 -c 0 -i 16 -a 0 -x {0.0 3.0 -1 ------- null}
+ -t 0.885 -s 0 -d 2 -p cbr -e 500 -c 0 -i 77 -a 0 -x {0.0 3.0 77 ------- null}
- -t 0.885 -s 0 -d 2 -p cbr -e 500 -c 0 -i 77 -a 0 -x {0.0 3.0 77 ------- null}
h -t 0.885 -s 0 -d 2 -p cbr -e 500 -c 0 -i 77 -a 0 -x {0.0 3.0 -1 ------- null}
r -t 0.88504 -s 0 -d 2 -p cbr -e 500 -c 0 -i 17 -a 0 -x {0.0 3.0 17 ------- null}
+ -t 0.88504 -s 2 -d 3 -p cbr -e 500 -c 0 -i 17 -a 0 -x {0.0 3.0 17 ------- null}
- -t 0.88504 -s 2 -d 3 -p cbr -e 500 -c 0 -i 17 -a 0 -x {0.0 3.0 17 ------- null}
h -t 0.88504 -s 2 -d 3 -p cbr -e 500 -c 0 -i 17 -a 0 -x {0.0 3.0 -1 ------- null}
+ -t 0.89 -s 0 -d 2 -p cbr -e 500 -c 0 -i 78 -a 0 -x {0.0 3.0 78 ------- null}
- -t 0.89 -s 0 -d 2 -p cbr -e 500 -c 0 -i 78 -a 0 -x {0.0 3.0 78 ------- null}
h -t 0.89 -s 0 -d 2 -p cbr -e 500 -c 0 -i 78 -a 0 -x {0.0 3.0 -1 ------- null}
r -t 0.89004 -s 0 -d 2 -p cbr -e 500 -c 0 -i 18 -a 0 -x {0.0 3.0 18 ------- null}
+ -t 0.89004 -s 2 -d 3 -p cbr -e 500 -c 0 -i 18 -a 0 -x {0.0 3.0 18 ------- null}
- -t 0.89004 -s 2 -d 3 -p cbr -e 500 -c 0 -i 18 -a 0 -x {0.0 3.0 18 ------- null}
h -t 0.89004 -s 2 -d 3 -p cbr -e 500 -c 0 -i 18 -a 0 -x {0.0 3.0 -1 ------- null}
+ -t 0.895 -s 0 -d 2 -p cbr -e 500 -c 0 -i 79 -a 0 -x {0.0 3.0 79 ------- null}
- -t 0.895 -s 0 -d 2 -p cbr -e 500 -c 0 -i 79 -a 0 -x {0.0 3.0 79 ------- null}
h -t 0.895 -s 0 -d 2 -p cbr -e 500 -c 0 -i 79 -a 0 -x {0.0 3.0 -1 ------- null}
r -t 0.89504 -s 0 -d 2 -p cbr -e 500 -c 0 -i 19 -a 0 -x {0.0 3.0 19 ------- null}
+ -t 0.89504 -s 2 -d 3 -p cbr -e 500 -c 0 -i 19 -a 0 -x {0.0 3.0 19 ------- null}
- -t 0.89504 -s 2 -d 3 -p cbr -e 500 -c 0 -i 19 -a 0 -x {0.0 3.0 19 ------- null}
h -t 0.89504 -s 2 -d 3 -p cbr -e 500 -c 0 -i 19 -a 0 -x {0.0 3.0 -1 ------- null}
+ -t 0.9 -s 0 -d 2 -p cbr -e 500 -c 0 -i 80 -a 0 -x {0.0 3.0 80 ------- null}
- -t 0.9 -s 0 -d 2 -p cbr -e 500 -c 0 -i 80 -a 0 -x {0.0 3.0 80 ------- null}
h -t 0.9 -s 0 -d 2 -p cbr -e 500 -c 0 -i 80 -a 0 -x {0.0 3.0 -1 ------- null}
r -t 0.90004 -s 0 -d 2 -p cbr -e 500 -c 0 -i 20 -a 0 -x {0.0 3.0 20 ------- null}
+ -t 0.90004 -s 2 -d 3 -p cbr -e 500 -c 0 -i 20 -a 0 -x {0.0 3.0 20 ------- null}
- -t 0.90004 -s 2 -d 3 -p cbr -e 500 -c 0 -i 20 -a 0 -x {0.0 3.0 20 ------- null}
h -t 0.90004 -s 2 -d 3 -p cbr -e 500 -c 0 -i 20 -a 0 -x {0.0 3.0 -1 ------- null}
+ -t 0.905 -s 0 -d 2 -p cbr -e 500 -c 0 -i 81 -a 0 -x {0.0 3.0 81 ------- null}
- -t 0.905 -s 0 -d 2 -p cbr -e 500 -c 0 -i 81 -a 0 -x {0.0 3.0 81 ------- null}
h -t 0.905 -s 0 -d 2 -p cbr -e 500 -c 0 -i 81 -a 0 -x {0.0 3.0 -1 ------- null}
r -t 0.90504 -s 0 -d 2 -p cbr -e 500 -c 0 -i 21 -a 0 -x {0.0 3.0 21 ------- null}
+ -t 0.90504 -s 2 -d 3 -p cbr -e 500 -c 0 -i 21 -a 0 -x {0.0 3.0 21 ------- null}
- -t 0.90504 -s 2 -d 3 -p cbr -e 500 -c 0 -i 21 -a 0 -x {0.0 3.0 21 ------- null}
h -t 0.90504 -s 2 -d 3 -p cbr -e 500 -c 0 -i 21 -a 0 -x {0.0 3.0 -1 ------- null}
+ -t 0.91 -s 0 -d 2 -p cbr -e 500 -c 0 -i 82 -a 0 -x {0.0 3.0 82 ------- null}
- -t 0.91 -s 0 -d 2 -p cbr -e 500 -c 0 -i 82 -a 0 -x {0.0 3.0 82 ------- null}
h -t 0.91 -s 0 -d 2 -p cbr -e 500 -c 0 -i 82 -a 0 -x {0.0 3.0 -1 ------- null}
r -t 0.91004 -s 0 -d 2 -p cbr -e 500 -c 0 -i 22 -a 0 -x {0.0 3.0 22 ------- null}
+ -t 0.91004 -s 2 -d 3 -p cbr -e 500 -c 0 -i 22 -a 0 -x {0.0 3.0 22 ------- null}
- -t 0.91004 -s 2 -d 3 -p cbr -e 500 -c 0 -i 22 -a 0 -x {0.0 3.0 22 ------- null}
h -t 0.91004 -s 2 -d 3 -p cbr -e 500 -c 0 -i 22 -a 0 -x {0.0 3.0 -1 ------- null}
+ -t 0.915 -s 0 -d 2 -p cbr -e 500 -c 0 -i 83 -a 0 -x {0.0 3.0 83 ------- null}
- -t 0.915 -s 0 -d 2 -p cbr -e 500 -c 0 -i 83 -a 0 -x {0.0 3.0 83 ------- null}
h -t 0.915 -s 0 -d 2 -p cbr -e 500 -c 0 -i 83 -a 0 -x {0.0 3.0 -1 ------- null}
r -t 0.91504 -s 0 -d 2 -p cbr -e 500 -c 0 -i 23 -a 0 -x {0.0 3.0 23 ------- null}
+ -t 0.91504 -s 2 -d 3 -p cbr -e 500 -c 0 -i 23 -a 0 -x {0.0 3.0 23 ------- null}
- -t 0.91504 -s 2 -d 3 -p cbr -e 500 -c 0 -i 23 -a 0 -x {0.0 3.0 23 ------- null}
h -t 0.91504 -s 2 -d 3 -p cbr -e 500 -c 0 -i 23 -a 0 -x {0.0 3.0 -1 ------- null}
+ -t 0.92 -s 0 -d 2 -p cbr -e 500 -c 0 -i 84 -a 0 -x {0.0 3.0 84 ------- null}
- -t 0.92 -s 0 -d 2 -p cbr -e 500 -c 0 -i 84 -a 0 -x {0.0 3.0 84 ------- null}
h -t 0.92 -s 0 -d 2 -p cbr -e 500 -c 0 -i 84 -a 0 -x {0.0 3.0 -1 ------- null}
r -t 0.92004 -s 0 -d 2 -p cbr -e 500 -c 0 -i 24 -a 0 -x {0.0 3.0 24 ------- null}
+ -t 0.92004 -s 2 -d 3 -p cbr -e 500 -c 0 -i 24 -a 0 -x {0.0 3.0 24 ------- null}
- -t 0.92004 -s 2 -d 3 -p cbr -e 500 -c 0 -i 24 -a 0 -x {0.0 3.0 24 ------- null}
h -t 0.92004 -s 2 -d 3 -p cbr -e 500 -c 0 -i 24 -a 0 -x {0.0 3.0 -1 ------- null}
+ -t 0.925 -s 0 -d 2 -p cbr -e 500 -c 0 -i 85 -a 0 -x {0.0 3.0 85 ------- null}
- -t 0.925 -s 0 -d 2 -p cbr -e 500 -c 0 -i 85 -a 0 -x {0.0 3.0 85 ------- null}
h -t 0.925 -s 0 -d 2 -p cbr -e 500 -c 0 -i 85 -a 0 -x {0.0 3.0 -1 ------- null}
r -t 0.92504 -s 0 -d 2 -p cbr -e 500 -c 0 -i 25 -a 0 -x {0.0 3.0 25 ------- null}
+ -t 0.92504 -s 2 -d 3 -p cbr -e 500 -c 0 -i 25 -a 0 -x {0.0 3.0 25 ------- null}
- -t 0.92504 -s 2 -d 3 -p cbr -e 500 -c 0 -i 25 -a 0 -x {0.0 3.0 25 ------- null}
h -t 0.92504 -s 2 -d 3 -p cbr -e 500 -c 0 -i 25 -a 0 -x {0.0 3.0 -1 ------- null}
+ -t 0.93 -s 0 -d 2 -p cbr -e 500 -c 0 -i 86 -a 0 -x {0.0 3.0 86 ------- null}
- -t 0.93 -s 0 -d 2 -p cbr -e 500 -c 0 -i 86 -a 0 -x {0.0 3.0 86 ------- null}
h -t 0.93 -s 0 -d 2 -p cbr -e 500 -c 0 -i 86 -a 0 -x {0.0 3.0 -1 ------- null}
r -t 0.93004 -s 0 -d 2 -p cbr -e 500 -c 0 -i 26 -a 0 -x {0.0 3.0 26 ------- null}