+ 0.5 0 2 cbr 500 ------- 0 0.0 3.0 0 0
- 0.5 0 2 cbr 500 ------- 0 0.0 3.0 0 0
+ 0.505 0 2 cbr 500 ------- 0 0.0 3.0 1 1
- 0.505 0 2 cbr 500 ------- 0 0.0 3.0 1 1
+ 0.51 0 2 cbr 500 ------- 0 0.0 3.0 2 2
- 0.51 0 2 cbr 500 ------- 0 0.0 3.0 2 2
+ 0.515 0 2 cbr 500 ------- 0 0.0 3.0 3 3
- 0.515 0 2 cbr 500 ------- 0 0.0 3.0 3 3
+ 0.52 0 2 cbr 500 ------- 0 0.0 3.0 4 4
- 0.52 0 2 cbr 500 ------- 0 0.0 3.0 4 4
+ 0.525 0 2 cbr 500 ------- 0 0.0 3.0 5 5
- 0.525 0 2 cbr 500 ------- 0 0.0 3.0 5 5
+ 0.53 0 2 cbr 500 ------- 0 0.0 3.0 6 6
- 0.53 0 2 cbr 500 ------- 0 0.0 3.0 6 6
+ 0.535 0 2 cbr 500 ------- 0 0.0 3.0 7 7
- 0.535 0 2 cbr 500 ------- 0 0.0 3.0 7 7
+ 0.54 0 2 cbr 500 ------- 0 0.0 3.0 8 8
- 0.54 0 2 cbr 500 ------- 0 0.0 3.0 8 8
+ 0.545 0 2 cbr 500 ------- 0 0.0 3.0 9 9
- 0.545 0 2 cbr 500 ------- 0 0.0 3.0 9 9
+ 0.55 0 2 cbr 500 ------- 0 0.0 3.0 10 10
- 0.55 0 2 cbr 500 ------- 0 0.0 3.0 10 10
+ 0.555 0 2 cbr 500 ------- 0 0.0 3.0 11 11
- 0.555 0 2 cbr 500 ------- 0 0.0 3.0 11 11
+ 0.56 0 2 cbr 500 ------- 0 0.0 3.0 12 12
- 0.56 0 2 cbr 500 ------- 0 0.0 3.0 12 12
+ 0.565 0 2 cbr 500 ------- 0 0.0 3.0 13 13
- 0.565 0 2 cbr 500 ------- 0 0.0 3.0 13 13
+ 0.57 0 2 cbr 500 ------- 0 0.0 3.0 14 14
- 0.57 0 2 cbr 500 ------- 0 0.0 3.0 14 14
+ 0.575 0 2 cbr 500 ------- 0 0.0 3.0 15 15
- 0.575 0 2 cbr 500 ------- 0 0.0 3.0 15 15
+ 0.58 0 2 cbr 500 ------- 0 0.0 3.0 16 16
- 0.58 0 2 cbr 500 ------- 0 0.0 3.0 16 16
+ 0.585 0 2 cbr 500 ------- 0 0.0 3.0 17 17
- 0.585 0 2 cbr 500 ------- 0 0.0 3.0 17 17
+ 0.59 0 2 cbr 500 ------- 0 0.0 3.0 18 18
- 0.59 0 2 cbr 500 ------- 0 0.0 3.0 18 18
+ 0.595 0 2 cbr 500 ------- 0 0.0 3.0 19 19
- 0.595 0 2 cbr 500 ------- 0 0.0 3.0 19 19
+ 0.6 0 2 cbr 500 ------- 0 0.0 3.0 20 20
- 0.6 0 2 cbr 500 ------- 0 0.0 3.0 20 20
+ 0.605 0 2 cbr 500 ------- 0 0.0 3.0 21 21
- 0.605 0 2 cbr 500 ------- 0 0.0 3.0 21 21
+ 0.61 0 2 cbr 500 ------- 0 0.0 3.0 22 22
- 0.61 0 2 cbr 500 ------- 0 0.0 3.0 22 22
+ 0.615 0 2 cbr 500 ------- 0 0.0 3.0 23 23
- 0.615 0 2 cbr 500 ------- 0 0.0 3.0 23 23
+ 0.62 0 2 cbr 500 ------- 0 0.0 3.0 24 24
- 0.62 0 2 cbr 500 ------- 0 0.0 3.0 24 24
+ 0.625 0 2 cbr 500 ------- 0 0.0 3.0 25 25
- 0.625 0 2 cbr 500 ------- 0 0.0 3.0 25 25
+ 0.63 0 2 cbr 500 ------- 0 0.0 3.0 26 26
- 0.63 0 2 cbr 500 ------- 0 0.0 3.0 26 26
+ 0.635 0 2 cbr 500 ------- 0 0.0 3.0 27 27
- 0.635 0 2 cbr 500 ------- 0 0.0 3.0 27 27
+ 0.64 0 2 cbr 500 ------- 0 0.0 3.0 28 28
- 0.64 0 2 cbr 500 ------- 0 0.0 3.0 28 28
+ 0.645 0 2 cbr 500 ------- 0 0.0 3.0 29 29
- 0.645 0 2 cbr 500 ------- 0 0.0 3.0 29 29
+ 0.65 0 2 cbr 500 ------- 0 0.0 3.0 30 30
- 0.65 0 2 cbr 500 ------- 0 0.0 3.0 30 30
+ 0.655 0 2 cbr 500 ------- 0 0.0 3.0 31 31
- 0.655 0 2 cbr 500 ------- 0 0.0 3.0 31 31
+ 0.66 0 2 cbr 500 ------- 0 0.0 3.0 32 32
- 0.66 0 2 cbr 500 ------- 0 0.0 3.0 32 32
+ 0.665 0 2 cbr 500 ------- 0 0.0 3.0 33 33
- 0.665 0 2 cbr 500 ------- 0 0.0 3.0 33 33
+ 0.67 0 2 cbr 500 ------- 0 0.0 3.0 34 34
- 0.67 0 2 cbr 500 ------- 0 0.0 3.0 34 34
+ 0.675 0 2 cbr 500 ------- 0 0.0 3.0 35 35
- 0.675 0 2 cbr 500 ------- 0 0.0 3.0 35 35
+ 0.68 0 2 cbr 500 ------- 0 0.0 3.0 36 36
- 0.68 0 2 cbr 500 ------- 0 0.0 3.0 36 36
+ 0.685 0 2 cbr 500 ------- 0 0.0 3.0 37 37
- 0.685 0 2 cbr 500 ------- 0 0.0 3.0 37 37
+ 0.69 0 2 cbr 500 ------- 0 0.0 3.0 38 38
- 0.69 0 2 cbr 500 ------- 0 0.0 3.0 38 38
+ 0.695 0 2 cbr 500 ------- 0 0.0 3.0 39 39
- 0.695 0 2 cbr 500 ------- 0 0.0 3.0 39 39
+ 0.7 0 2 cbr 500 ------- 0 0.0 3.0 40 40
- 0.7 0 2 cbr 500 ------- 0 0.0 3.0 40 40
+ 0.705 0 2 cbr 500 ------- 0 0.0 3.0 41 41
- 0.705 0 2 cbr 500 ------- 0 0.0 3.0 41 41
+ 0.71 0 2 cbr 500 ------- 0 0.0 3.0 42 42
- 0.71 0 2 cbr 500 ------- 0 0.0 3.0 42 42
+ 0.715 0 2 cbr 500 ------- 0 0.0 3.0 43 43
- 0.715 0 2 cbr 500 ------- 0 0.0 3.0 43 43
+ 0.72 0 2 cbr 500 ------- 0 0.0 3.0 44 44
- 0.72 0 2 cbr 500 ------- 0 0.0 3.0 44 44
+ 0.725 0 2 cbr 500 ------- 0 0.0 3.0 45 45
- 0.725 0 2 cbr 500 ------- 0 0.0 3.0 45 45
+ 0.73 0 2 cbr 500 ------- 0 0.0 3.0 46 46
- 0.73 0 2 cbr 500 ------- 0 0.0 3.0 46 46
+ 0.735 0 2 cbr 500 ------- 0 0.0 3.0 47 47
- 0.735 0 2 cbr 500 ------- 0 0.0 3.0 47 47
+ 0.74 0 2 cbr 500 ------- 0 0.0 3.0 48 48
- 0.74 0 2 cbr 500 ------- 0 0.0 3.0 48 48
+ 0.745 0 2 cbr 500 ------- 0 0.0 3.0 49 49
- 0.745 0 2 cbr 500 ------- 0 0.0 3.0 49 49
+ 0.75 0 2 cbr 500 ------- 0 0.0 3.0 50 50
- 0.75 0 2 cbr 500 ------- 0 0.0 3.0 50 50
+ 0.755 0 2 cbr 500 ------- 0 0.0 3.0 51 51
- 0.755 0 2 cbr 500 ------- 0 0.0 3.0 51 51
+ 0.76 0 2 cbr 500 ------- 0 0.0 3.0 52 52
- 0.76 0 2 cbr 500 ------- 0 0.0 3.0 52 52
+ 0.765 0 2 cbr 500 ------- 0 0.0 3.0 53 53
- 0.765 0 2 cbr 500 ------- 0 0.0 3.0 53 53
+ 0.77 0 2 cbr 500 ------- 0 0.0 3.0 54 54
- 0.77 0 2 cbr 500 ------- 0 0.0 3.0 54 54
+ 0.775 0 2 cbr 500 ------- 0 0.0 3.0 55 55
- 0.775 0 2 cbr 500 ------- 0 0.0 3.0 55 55
+ 0.78 0 2 cbr 500 ------- 0 0.0 3.0 56 56
- 0.78 0 2 cbr 500 ------- 0 0.0 3.0 56 56
+ 0.785 0 2 cbr 500 ------- 0 0.0 3.0 57 57
- 0.785 0 2 cbr 500 ------- 0 0.0 3.0 57 57
+ 0.79 0 2 cbr 500 ------- 0 0.0 3.0 58 58
- 0.79 0 2 cbr 500 ------- 0 0.0 3.0 58 58
+ 0.795 0 2 cbr 500 ------- 0 0.0 3.0 59 59
- 0.795 0 2 cbr 500 ------- 0 0.0 3.0 59 59
+ 0.8 0 2 cbr 500 ------- 0 0.0 3.0 60 60
- 0.8 0 2 cbr 500 ------- 0 0.0 3.0 60 60
r 0.80004 0 2 cbr 500 ------- 0 0.0 3.0 0 0
+ 0.80004 2 3 cbr 500 ------- 0 0.0 3.0 0 0
- 0.80004 2 3 cbr 500 ------- 0 0.0 3.0 0 0
+ 0.805 0 2 cbr 500 ------- 0 0.0 3.0 61 61
- 0.805 0 2 cbr 500 ------- 0 0.0 3.0 61 61
r 0.80504 0 2 cbr 500 ------- 0 0.0 3.0 1 1
+ 0.80504 2 3 cbr 500 ------- 0 0.0 3.0 1 1
- 0.80504 2 3 cbr 500 ------- 0 0.0 3.0 1 1
+ 0.81 0 2 cbr 500 ------- 0 0.0 3.0 62 62
- 0.81 0 2 cbr 500 ------- 0 0.0 3.0 62 62
r 0.81004 0 2 cbr 500 ------- 0 0.0 3.0 2 2
+ 0.81004 2 3 cbr 500 ------- 0 0.0 3.0 2 2
- 0.81004 2 3 cbr 500 ------- 0 0.0 3.0 2 2
+ 0.815 0 2 cbr 500 ------- 0 0.0 3.0 63 63
- 0.815 0 2 cbr 500 ------- 0 0.0 3.0 63 63
r 0.81504 0 2 cbr 500 ------- 0 0.0 3.0 3 3
+ 0.81504 2 3 cbr 500 ------- 0 0.0 3.0 3 3
- 0.81504 2 3 cbr 500 ------- 0 0.0 3.0 3 3
+ 0.82 0 2 cbr 500 ------- 0 0.0 3.0 64 64
- 0.82 0 2 cbr 500 ------- 0 0.0 3.0 64 64
r 0.82004 0 2 cbr 500 ------- 0 0.0 3.0 4 4
+ 0.82004 2 3 cbr 500 ------- 0 0.0 3.0 4 4
- 0.82004 2 3 cbr 500 ------- 0 0.0 3.0 4 4
+ 0.825 0 2 cbr 500 ------- 0 0.0 3.0 65 65
- 0.825 0 2 cbr 500 ------- 0 0.0 3.0 65 65
r 0.82504 0 2 cbr 500 ------- 0 0.0 3.0 5 5
+ 0.82504 2 3 cbr 500 ------- 0 0.0 3.0 5 5
- 0.82504 2 3 cbr 500 ------- 0 0.0 3.0 5 5
+ 0.83 0 2 cbr 500 ------- 0 0.0 3.0 66 66
- 0.83 0 2 cbr 500 ------- 0 0.0 3.0 66 66
r 0.83004 0 2 cbr 500 ------- 0 0.0 3.0 6 6
+ 0.83004 2 3 cbr 500 ------- 0 0.0 3.0 6 6
- 0.83004 2 3 cbr 500 ------- 0 0.0 3.0 6 6
+ 0.835 0 2 cbr 500 ------- 0 0.0 3.0 67 67
- 0.835 0 2 cbr 500 ------- 0 0.0 3.0 67 67
r 0.83504 0 2 cbr 500 ------- 0 0.0 3.0 7 7
+ 0.83504 2 3 cbr 500 ------- 0 0.0 3.0 7 7
- 0.83504 2 3 cbr 500 ------- 0 0.0 3.0 7 7
+ 0.84 0 2 cbr 500 ------- 0 0.0 3.0 68 68
- 0.84 0 2 cbr 500 ------- 0 0.0 3.0 68 68
r 0.84004 0 2 cbr 500 ------- 0 0.0 3.0 8 8
+ 0.84004 2 3 cbr 500 ------- 0 0.0 3.0 8 8
- 0.84004 2 3 cbr 500 ------- 0 0.0 3.0 8 8
+ 0.845 0 2 cbr 500 ------- 0 0.0 3.0 69 69
- 0.845 0 2 cbr 500 ------- 0 0.0 3.0 69 69
r 0.84504 0 2 cbr 500 ------- 0 0.0 3.0 9 9
+ 0.84504 2 3 cbr 500 ------- 0 0.0 3.0 9 9
- 0.84504 2 3 cbr 500 ------- 0 0.0 3.0 9 9
+ 0.85 0 2 cbr 500 ------- 0 0.0 3.0 70 70
- 0.85 0 2 cbr 500 ------- 0 0.0 3.0 70 70
r 0.85004 0 2 cbr 500 ------- 0 0.0 3.0 10 10
+ 0.85004 2 3 cbr 500 ------- 0 0.0 3.0 10 10
- 0.85004 2 3 cbr 500 ------- 0 0.0 3.0 10 10
+ 0.855 0 2 cbr 500 ------- 0 0.0 3.0 71 71
- 0.855 0 2 cbr 500 ------- 0 0.0 3.0 71 71
r 0.85504 0 2 cbr 500 ------- 0 0.0 3.0 11 11
+ 0.85504 2 3 cbr 500 ------- 0 0.0 3.0 11 11
- 0.85504 2 3 cbr 500 ------- 0 0.0 3.0 11 11
+ 0.86 0 2 cbr 500 ------- 0 0.0 3.0 72 72
- 0.86 0 2 cbr 500 ------- 0 0.0 3.0 72 72
r 0.86004 0 2 cbr 500 ------- 0 0.0 3.0 12 12
+ 0.86004 2 3 cbr 500 ------- 0 0.0 3.0 12 12
- 0.86004 2 3 cbr 500 ------- 0 0.0 3.0 12 12
+ 0.865 0 2 cbr 500 ------- 0 0.0 3.0 73 73
- 0.865 0 2 cbr 500 ------- 0 0.0 3.0 73 73
r 0.86504 0 2 cbr 500 ------- 0 0.0 3.0 13 13
+ 0.86504 2 3 cbr 500 ------- 0 0.0 3.0 13 13
- 0.86504 2 3 cbr 500 ------- 0 0.0 3.0 13 13
+ 0.87 0 2 cbr 500 ------- 0 0.0 3.0 74 74
- 0.87 0 2 cbr 500 ------- 0 0.0 3.0 74 74
r 0.87004 0 2 cbr 500 ------- 0 0.0 3.0 14 14
+ 0.87004 2 3 cbr 500 ------- 0 0.0 3.0 14 14
- 0.87004 2 3 cbr 500 ------- 0 0.0 3.0 14 14
+ 0.875 0 2 cbr 500 ------- 0 0.0 3.0 75 75
- 0.875 0 2 cbr 500 ------- 0 0.0 3.0 75 75
r 0.87504 0 2 cbr 500 ------- 0 0.0 3.0 15 15
+ 0.87504 2 3 cbr 500 ------- 0 0.0 3.0 15 15
- 0.87504 2 3 cbr 500 ------- 0 0.0 3.0 15 15
+ 0.88 0 2 cbr 500 ------- 0 0.0 3.0 76 76
- 0.88 0 2 cbr 500 ------- 0 0.0 3.0 76 76
r 0.88004 0 2 cbr 500 ------- 0 0.0 3.0 16 16
+ 0.88004 2 3 cbr 500 ------- 0 0.0 3.0 16 16
- 0.88004 2 3 cbr 500 ------- 0 0.0 3.0 16 16
+ 0.885 0 2 cbr 500 ------- 0 0.0 3.0 77 77
- 0.885 0 2 cbr 500 ------- 0 0.0 3.0 77 77
r 0.88504 0 2 cbr 500 ------- 0 0.0 3.0 17 17
+ 0.88504 2 3 cbr 500 ------- 0 0.0 3.0 17 17
- 0.88504 2 3 cbr 500 ------- 0 0.0 3.0 17 17
+ 0.89 0 2 cbr 500 ------- 0 0.0 3.0 78 78
- 0.89 0 2 cbr 500 ------- 0 0.0 3.0 78 78
r 0.89004 0 2 cbr 500 ------- 0 0.0 3.0 18 18
+ 0.89004 2 3 cbr 500 ------- 0 0.0 3.0 18 18
- 0.89004 2 3 cbr 500 ------- 0 0.0 3.0 18 18
+ 0.895 0 2 cbr 500 ------- 0 0.0 3.0 79 79
- 0.895 0 2 cbr 500 ------- 0 0.0 3.0 79 79
r 0.89504 0 2 cbr 500 ------- 0 0.0 3.0 19 19
+ 0.89504 2 3 cbr 500 ------- 0 0.0 3.0 19 19
- 0.89504 2 3 cbr 500 ------- 0 0.0 3.0 19 19
+ 0.9 0 2 cbr 500 ------- 0 0.0 3.0 80 80
- 0.9 0 2 cbr 500 ------- 0 0.0 3.0 80 80
r 0.90004 0 2 cbr 500 ------- 0 0.0 3.0 20 20
+ 0.90004 2 3 cbr 500 ------- 0 0.0 3.0 20 20
- 0.90004 2 3 cbr 500 ------- 0 0.0 3.0 20 20
+ 0.905 0 2 cbr 500 ------- 0 0.0 3.0 81 81
- 0.905 0 2 cbr 500 ------- 0 0.0 3.0 81 81
r 0.90504 0 2 cbr 500 ------- 0 0.0 3.0 21 21
+ 0.90504 2 3 cbr 500 ------- 0 0.0 3.0 21 21
- 0.90504 2 3 cbr 500 ------- 0 0.0 3.0 21 21
+ 0.91 0 2 cbr 500 ------- 0 0.0 3.0 82 82
- 0.91 0 2 cbr 500 ------- 0 0.0 3.0 82 82
r 0.91004 0 2 cbr 500 ------- 0 0.0 3.0 22 22
+ 0.91004 2 3 cbr 500 ------- 0 0.0 3.0 22 22
- 0.91004 2 3 cbr 500 ------- 0 0.0 3.0 22 22
+ 0.915 0 2 cbr 500 ------- 0 0.0 3.0 83 83
- 0.915 0 2 cbr 500 ------- 0 0.0 3.0 83 83
r 0.91504 0 2 cbr 500 ------- 0 0.0 3.0 23 23
+ 0.91504 2 3 cbr 500 ------- 0 0.0 3.0 23 23
- 0.91504 2 3 cbr 500 ------- 0 0.0 3.0 23 23
+ 0.92 0 2 cbr 500 ------- 0 0.0 3.0 84 84
- 0.92 0 2 cbr 500 ------- 0 0.0 3.0 84 84
r 0.92004 0 2 cbr 500 ------- 0 0.0 3.0 24 24
+ 0.92004 2 3 cbr 500 ------- 0 0.0 3.0 24 24
- 0.92004 2 3 cbr 500 ------- 0 0.0 3.0 24 24
+ 0.925 0 2 cbr 500 ------- 0 0.0 3.0 85 85
- 0.925 0 2 cbr 500 ------- 0 0.0 3.0 85 85
r 0.92504 0 2 cbr 500 ------- 0 0.0 3.0 25 25
+ 0.92504 2 3 cbr 500 ------- 0 0.0 3.0 25 25
- 0.92504 2 3 cbr 500 ------- 0 0.0 3.0 25 25
+ 0.93 0 2 cbr 500 ------- 0 0.0 3.0 86 86
- 0.93 0 2 cbr 500 ------- 0 0.0 3.0 86 86
r 0.93004 0 2 cbr 500 ------- 0 0.0 3.0 26 26
+ 0.93004 2 3 cbr 500 ------- 0 0.0 3.0 26 26
- 0.93004 2 3 cbr 500 ------- 0 0.0 3.0 26 26
+ 0.935 0 2 cbr 500 ------- 0 0.0 3.0 87 87
- 0.935 0 2 cbr 500 ------- 0 0.0 3.0 87 87
r 0.93504 0 2 cbr 500 ------- 0 0.0 3.0 27 27
+ 0.93504 2 3 cbr 500 ------- 0 0.0 3.0 27 27
- 0.93504 2 3 cbr 500 ------- 0 0.0 3.0 27 27
+ 0.94 0 2 cbr 500 ------- 0 0.0 3.0 88 88
- 0.94 0 2 cbr 500 ------- 0 0.0 3.0 88 88
r 0.94004 0 2 cbr 500 ------- 0 0.0 3.0 28 28
+ 0.94004 2 3 cbr 500 ------- 0 0.0 3.0 28 28
- 0.94004 2 3 cbr 500 ------- 0 0.0 3.0 28 28
+ 0.945 0 2 cbr 500 ------- 0 0.0 3.0 89 89
- 0.945 0 2 cbr 500 ------- 0 0.0 3.0 89 89
r 0.94504 0 2 cbr 500 ------- 0 0.0 3.0 29 29
+ 0.94504 2 3 cbr 500 ------- 0 0.0 3.0 29 29
- 0.94504 2 3 cbr 500 ------- 0 0.0 3.0 29 29
+ 0.95 0 2 cbr 500 ------- 0 0.0 3.0 90 90
- 0.95 0 2 cbr 500 ------- 0 0.0 3.0 90 90
r 0.95004 0 2 cbr 500 ------- 0 0.0 3.0 30 30
+ 0.95004 2 3 cbr 500 ------- 0 0.0 3.0 30 30
- 0.95004 2 3 cbr 500 ------- 0 0.0 3.0 30 30
+ 0.955 0 2 cbr 500 ------- 0 0.0 3.0 91 91
- 0.955 0 2 cbr 500 ------- 0 0.0 3.0 91 91
r 0.95504 0 2 cbr 500 ------- 0 0.0 3.0 31 31
+ 0.95504 2 3 cbr 500 ------- 0 0.0 3.0 31 31
- 0.95504 2 3 cbr 500 ------- 0 0.0 3.0 31 31
+ 0.96 0 2 cbr 500 ------- 0 0.0 3.0 92 92
- 0.96 0 2 cbr 500 ------- 0 0.0 3.0 92 92
r 0.96004 0 2 cbr 500 ------- 0 0.0 3.0 32 32
+ 0.96004 2 3 cbr 500 ------- 0 0.0 3.0 32 32
- 0.96004 2 3 cbr 500 ------- 0 0.0 3.0 32 32
+ 0.965 0 2 cbr 500 ------- 0 0.0 3.0 93 93
- 0.965 0 2 cbr 500 ------- 0 0.0 3.0 93 93
r 0.96504 0 2 cbr 500 ------- 0 0.0 3.0 33 33
+ 0.96504 2 3 cbr 500 ------- 0 0.0 3.0 33 33
- 0.96504 2 3 cbr 500 ------- 0 0.0 3.0 33 33
+ 0.97 0 2 cbr 500 ------- 0 0.0 3.0 94 94
- 0.97 0 2 cbr 500 ------- 0 0.0 3.0 94 94
r 0.97004 0 2 cbr 500 ------- 0 0.0 3.0 34 34
+ 0.97004 2 3 cbr 500 ------- 0 0.0 3.0 34 34
- 0.97004 2 3 cbr 500 ------- 0 0.0 3.0 34 34
+ 0.975 0 2 cbr 500 ------- 0 0.0 3.0 95 95
- 0.975 0 2 cbr 500 ------- 0 0.0 3.0 95 95
r 0.97504 0 2 cbr 500 ------- 0 0.0 3.0 35 35
+ 0.97504 2 3 cbr 500 ------- 0 0.0 3.0 35 35
- 0.97504 2 3 cbr 500 ------- 0 0.0 3.0 35 35
+ 0.98 0 2 cbr 500 ------- 0 0.0 3.0 96 96
- 0.98 0 2 cbr 500 ------- 0 0.0 3.0 96 96
r 0.98004 0 2 cbr 500 ------- 0 0.0 3.0 36 36
+ 0.98004 2 3 cbr 500 ------- 0 0.0 3.0 36 36
- 0.98004 2 3 cbr 500 ------- 0 0.0 3.0 36 36
+ 0.985 0 2 cbr 500 ------- 0 0.0 3.0 97 97
- 0.985 0 2 cbr 500 ------- 0 0.0 3.0 97 97
r 0.98504 0 2 cbr 500 ------- 0 0.0 3.0 37 37
+ 0.98504 2 3 cbr 500 ------- 0 0.0 3.0 37 37
- 0.98504 2 3 cbr 500 ------- 0 0.0 3.0 37 37
+ 0.99 0 2 cbr 500 ------- 0 0.0 3.0 98 98
- 0.99 0 2 cbr 500 ------- 0 0.0 3.0 98 98
r 0.99004 0 2 cbr 500 ------- 0 0.0 3.0 38 38
+ 0.99004 2 3 cbr 500 ------- 0 0.0 3.0 38 38
- 0.99004 2 3 cbr 500 ------- 0 0.0 3.0 38 38
+ 0.995 0 2 cbr 500 ------- 0 0.0 3.0 99 99
- 0.995 0 2 cbr 500 ------- 0 0.0 3.0 99 99
r 0.99504 0 2 cbr 500 ------- 0 0.0 3.0 39 39
+ 0.99504 2 3 cbr 500 ------- 0 0.0 3.0 39 39
- 0.99504 2 3 cbr 500 ------- 0 0.0 3.0 39 39
+ 1 1 2 cbr 500 ------- 2 1.0 3.0 0 100
- 1 1 2 cbr 500 ------- 2 1.0 3.0 0 100
+ 1 0 2 cbr 500 ------- 0 0.0 3.0 100 101
- 1 0 2 cbr 500 ------- 0 0.0 3.0 100 101
r 1.00004 0 2 cbr 500 ------- 0 0.0 3.0 40 40
+ 1.00004 2 3 cbr 500 ------- 0 0.0 3.0 40 40
- 1.00004 2 3 cbr 500 ------- 0 0.0 3.0 40 40
+ 1.005 1 2 cbr 500 ------- 2 1.0 3.0 1 102
- 1.005 1 2 cbr 500 ------- 2 1.0 3.0 1 102
+ 1.005 0 2 cbr 500 ------- 0 0.0 3.0 101 103
- 1.005 0 2 cbr 500 ------- 0 0.0 3.0 101 103
r 1.00504 0 2 cbr 500 ------- 0 0.0 3.0 41 41
+ 1.00504 2 3 cbr 500 ------- 0 0.0 3.0 41 41
- 1.00504 2 3 cbr 500 ------- 0 0.0 3.0 41 41
+ 1.01 1 2 cbr 500 ------- 2 1.0 3.0 2 104
- 1.01 1 2 cbr 500 ------- 2 1.0 3.0 2 104
+ 1.01 0 2 cbr 500 ------- 0 0.0 3.0 102 105
- 1.01 0 2 cbr 500 ------- 0 0.0 3.0 102 105
r 1.01004 0 2 cbr 500 ------- 0 0.0 3.0 42 42
+ 1.01004 2 3 cbr 500 ------- 0 0.0 3.0 42 42
- 1.01004 2 3 cbr 500 ------- 0 0.0 3.0 42 42
+ 1.015 1 2 cbr 500 ------- 2 1.0 3.0 3 106
- 1.015 1 2 cbr 500 ------- 2 1.0 3.0 3 106
+ 1.015 0 2 cbr 500 ------- 0 0.0 3.0 103 107
- 1.015 0 2 cbr 500 ------- 0 0.0 3.0 103 107
r 1.01504 0 2 cbr 500 ------- 0 0.0 3.0 43 43
+ 1.01504 2 3 cbr 500 ------- 0 0.0 3.0 43 43
- 1.01504 2 3 cbr 500 ------- 0 0.0 3.0 43 43
+ 1.02 1 2 cbr 500 ------- 2 1.0 3.0 4 108
- 1.02 1 2 cbr 500 ------- 2 1.0 3.0 4 108
+ 1.02 0 2 cbr 500 ------- 0 0.0 3.0 104 109
- 1.02 0 2 cbr 500 ------- 0 0.0 3.0 104 109
r 1.02004 0 2 cbr 500 ------- 0 0.0 3.0 44 44
+ 1.02004 2 3 cbr 500 ------- 0 0.0 3.0 44 44
- 1.02004 2 3 cbr 500 ------- 0 0.0 3.0 44 44
+ 1.025 1 2 cbr 500 ------- 2 1.0 3.0 5 110
- 1.025 1 2 cbr 500 ------- 2 1.0 3.0 5 110
+ 1.025 0 2 cbr 500 ------- 0 0.0 3.0 105 111
- 1.025 0 2 cbr 500 ------- 0 0.0 3.0 105 111
r 1.02504 0 2 cbr 500 ------- 0 0.0 3.0 45 45
+ 1.02504 2 3 cbr 500 ------- 0 0.0 3.0 45 45
- 1.02504 2 3 cbr 500 ------- 0 0.0 3.0 45 45
+ 1.03 1 2 cbr 500 ------- 2 1.0 3.0 6 112
- 1.03 1 2 cbr 500 ------- 2 1.0 3.0 6 112
+ 1.03 0 2 cbr 500 ------- 0 0.0 3.0 106 113
- 1.03 0 2 cbr 500 ------- 0 0.0 3.0 106 113
r 1.03004 0 2 cbr 500 ------- 0 0.0 3.0 46 46
+ 1.03004 2 3 cbr 500 ------- 0 0.0 3.0 46 46
- 1.03004 2 3 cbr 500 ------- 0 0.0 3.0 46 46
+ 1.035 1 2 cbr 500 ------- 2 1.0 3.0 7 114
- 1.035 1 2 cbr 500 ------- 2 1.0 3.0 7 114
+ 1.035 0 2 cbr 500 ------- 0 0.0 3.0 107 115
- 1.035 0 2 cbr 500 ------- 0 0.0 3.0 107 115
r 1.03504 0 2 cbr 500 ------- 0 0.0 3.0 47 47
+ 1.03504 2 3 cbr 500 ------- 0 0.0 3.0 47 47
- 1.03504 2 3 cbr 500 ------- 0 0.0 3.0 47 47
+ 1.04 1 2 cbr 500 ------- 2 1.0 3.0 8 116
- 1.04 1 2 cbr 500 ------- 2 1.0 3.0 8 116
+ 1.04 0 2 cbr 500 ------- 0 0.0 3.0 108 117
- 1.04 0 2 cbr 500 ------- 0 0.0 3.0 108 117
r 1.04004 0 2 cbr 500 ------- 0 0.0 3.0 48 48
+ 1.04004 2 3 cbr 500 ------- 0 0.0 3.0 48 48
- 1.04004 2 3 cbr 500 ------- 0 0.0 3.0 48 48
+ 1.045 1 2 cbr 500 ------- 2 1.0 3.0 9 118
- 1.045 1 2 cbr 500 ------- 2 1.0 3.0 9 118
+ 1.045 0 2 cbr 500 ------- 0 0.0 3.0 109 119
- 1.045 0 2 cbr 500 ------- 0 0.0 3.0 109 119
r 1.04504 0 2 cbr 500 ------- 0 0.0 3.0 49 49
+ 1.04504 2 3 cbr 500 ------- 0 0.0 3.0 49 49
- 1.04504 2 3 cbr 500 ------- 0 0.0 3.0 49 49
+ 1.05 1 2 cbr 500 ------- 2 1.0 3.0 10 120
- 1.05 1 2 cbr 500 ------- 2 1.0 3.0 10 120
+ 1.05 0 2 cbr 500 ------- 0 0.0 3.0 110 121
- 1.05 0 2 cbr 500 ------- 0 0.0 3.0 110 121
r 1.05004 0 2 cbr 500 ------- 0 0.0 3.0 50 50
+ 1.05004 2 3 cbr 500 ------- 0 0.0 3.0 50 50
- 1.05004 2 3 cbr 500 ------- 0 0.0 3.0 50 50
+ 1.055 1 2 cbr 500 ------- 2 1.0 3.0 11 122
- 1.055 1 2 cbr 500 ------- 2 1.0 3.0 11 122
+ 1.055 0 2 cbr 500 ------- 0 0.0 3.0 111 123
- 1.055 0 2 cbr 500 ------- 0 0.0 3.0 111 123
r 1.05504 0 2 cbr 500 ------- 0 0.0 3.0 51 51
+ 1.05504 2 3 cbr 500 ------- 0 0.0 3.0 51 51
- 1.05504 2 3 cbr 500 ------- 0 0.0 3.0 51 51
+ 1.06 1 2 cbr 500 ------- 2 1.0 3.0 12 124
- 1.06 1 2 cbr 500 ------- 2 1.0 3.0 12 124
+ 1.06 0 2 cbr 500 ------- 0 0.0 3.0 112 125
- 1.06 0 2 cbr 500 ------- 0 0.0 3.0 112 125
r 1.06004 0 2 cbr 500 ------- 0 0.0 3.0 52 52
+ 1.06004 2 3 cbr 500 ------- 0 0.0 3.0 52 52
- 1.06004 2 3 cbr 500 ------- 0 0.0 3.0 52 52
+ 1.065 1 2 cbr 500 ------- 2 1.0 3.0 13 126
- 1.065 1 2 cbr 500 ------- 2 1.0 3.0 13 126
+ 1.065 0 2 cbr 500 ------- 0 0.0 3.0 113 127
- 1.065 0 2 cbr 500 ------- 0 0.0 3.0 113 127
r 1.06504 0 2 cbr 500 ------- 0 0.0 3.0 53 53
+ 1.06504 2 3 cbr 500 ------- 0 0.0 3.0 53 53
- 1.06504 2 3 cbr 500 ------- 0 0.0 3.0 53 53
+ 1.07 1 2 cbr 500 ------- 2 1.0 3.0 14 128
- 1.07 1 2 cbr 500 ------- 2 1.0 3.0 14 128
+ 1.07 0 2 cbr 500 ------- 0 0.0 3.0 114 129
- 1.07 0 2 cbr 500 ------- 0 0.0 3.0 114 129
r 1.07004 0 2 cbr 500 ------- 0 0.0 3.0 54 54
+ 1.07004 2 3 cbr 500 ------- 0 0.0 3.0 54 54
- 1.07004 2 3 cbr 500 ------- 0 0.0 3.0 54 54
+ 1.075 1 2 cbr 500 ------- 2 1.0 3.0 15 130
- 1.075 1 2 cbr 500 ------- 2 1.0 3.0 15 130
+ 1.075 0 2 cbr 500 ------- 0 0.0 3.0 115 131
- 1.075 0 2 cbr 500 ------- 0 0.0 3.0 115 131
r 1.07504 0 2 cbr 500 ------- 0 0.0 3.0 55 55
+ 1.07504 2 3 cbr 500 ------- 0 0.0 3.0 55 55
- 1.07504 2 3 cbr 500 ------- 0 0.0 3.0 55 55
+ 1.08 1 2 cbr 500 ------- 2 1.0 3.0 16 132
- 1.08 1 2 cbr 500 ------- 2 1.0 3.0 16 132
+ 1.08 0 2 cbr 500 ------- 0 0.0 3.0 116 133
- 1.08 0 2 cbr 500 ------- 0 0.0 3.0 116 133
r 1.08004 0 2 cbr 500 ------- 0 0.0 3.0 56 56
+ 1.08004 2 3 cbr 500 ------- 0 0.0 3.0 56 56
- 1.08004 2 3 cbr 500 ------- 0 0.0 3.0 56 56
+ 1.085 1 2 cbr 500 ------- 2 1.0 3.0 17 134
- 1.085 1 2 cbr 500 ------- 2 1.0 3.0 17 134
+ 1.085 0 2 cbr 500 ------- 0 0.0 3.0 117 135
- 1.085 0 2 cbr 500 ------- 0 0.0 3.0 117 135
r 1.08504 0 2 cbr 500 ------- 0 0.0 3.0 57 57
+ 1.08504 2 3 cbr 500 ------- 0 0.0 3.0 57 57
- 1.08504 2 3 cbr 500 ------- 0 0.0 3.0 57 57
+ 1.09 1 2 cbr 500 ------- 2 1.0 3.0 18 136
- 1.09 1 2 cbr 500 ------- 2 1.0 3.0 18 136
+ 1.09 0 2 cbr 500 ------- 0 0.0 3.0 118 137
- 1.09 0 2 cbr 500 ------- 0 0.0 3.0 118 137
r 1.09004 0 2 cbr 500 ------- 0 0.0 3.0 58 58
+ 1.09004 2 3 cbr 500 ------- 0 0.0 3.0 58 58
- 1.09004 2 3 cbr 500 ------- 0 0.0 3.0 58 58
+ 1.095 1 2 cbr 500 ------- 2 1.0 3.0 19 138
- 1.095 1 2 cbr 500 ------- 2 1.0 3.0 19 138
+ 1.095 0 2 cbr 500 ------- 0 0.0 3.0 119 139
- 1.095 0 2 cbr 500 ------- 0 0.0 3.0 119 139
r 1.09504 0 2 cbr 500 ------- 0 0.0 3.0 59 59
+ 1.09504 2 3 cbr 500 ------- 0 0.0 3.0 59 59
- 1.09504 2 3 cbr 500 ------- 0 0.0 3.0 59 59
+ 1.1 1 2 cbr 500 ------- 2 1.0 3.0 20 140
- 1.1 1 2 cbr 500 ------- 2 1.0 3.0 20 140
+ 1.1 0 2 cbr 500 ------- 0 0.0 3.0 120 141
- 1.1 0 2 cbr 500 ------- 0 0.0 3.0 120 141
r 1.10004 0 2 cbr 500 ------- 0 0.0 3.0 60 60
+ 1.10004 2 3 cbr 500 ------- 0 0.0 3.0 60 60
- 1.10004 2 3 cbr 500 ------- 0 0.0 3.0 60 60
r 1.10404 2 3 cbr 500 ------- 0 0.0 3.0 0 0
+ 1.105 1 2 cbr 500 ------- 2 1.0 3.0 21 142
- 1.105 1 2 cbr 500 ------- 2 1.0 3.0 21 142
+ 1.105 0 2 cbr 500 ------- 0 0.0 3.0 121 143
- 1.105 0 2 cbr 500 ------- 0 0.0 3.0 121 143
r 1.10504 0 2 cbr 500 ------- 0 0.0 3.0 61 61
+ 1.10504 2 3 cbr 500 ------- 0 0.0 3.0 61 61
- 1.10504 2 3 cbr 500 ------- 0 0.0 3.0 61 61
r 1.10904 2 3 cbr 500 ------- 0 0.0 3.0 1 1
+ 1.11 1 2 cbr 500 ------- 2 1.0 3.0 22 144
- 1.11 1 2 cbr 500 ------- 2 1.0 3.0 22 144
+ 1.11 0 2 cbr 500 ------- 0 0.0 3.0 122 145
- 1.11 0 2 cbr 500 ------- 0 0.0 3.0 122 145
r 1.11004 0 2 cbr 500 ------- 0 0.0 3.0 62 62
+ 1.11004 2 3 cbr 500 ------- 0 0.0 3.0 62 62
- 1.11004 2 3 cbr 500 ------- 0 0.0 3.0 62 62
r 1.11404 2 3 cbr 500 ------- 0 0.0 3.0 2 2
+ 1.115 1 2 cbr 500 ------- 2 1.0 3.0 23 146
- 1.115 1 2 cbr 500 ------- 2 1.0 3.0 23 146
+ 1.115 0 2 cbr 500 ------- 0 0.0 3.0 123 147
- 1.115 0 2 cbr 500 ------- 0 0.0 3.0 123 147
r 1.11504 0 2 cbr 500 ------- 0 0.0 3.0 63 63
+ 1.11504 2 3 cbr 500 ------- 0 0.0 3.0 63 63
- 1.11504 2 3 cbr 500 ------- 0 0.0 3.0 63 63
r 1.11904 2 3 cbr 500 ------- 0 0.0 3.0 3 3
+ 1.12 1 2 cbr 500 ------- 2 1.0 3.0 24 148
- 1.12 1 2 cbr 500 ------- 2 1.0 3.0 24 148
+ 1.12 0 2 cbr 500 ------- 0 0.0 3.0 124 149
- 1.12 0 2 cbr 500 ------- 0 0.0 3.0 124 149
r 1.12004 0 2 cbr 500 ------- 0 0.0 3.0 64 64
+ 1.12004 2 3 cbr 500 ------- 0 0.0 3.0 64 64
- 1.12004 2 3 cbr 500 ------- 0 0.0 3.0 64 64
r 1.12404 2 3 cbr 500 ------- 0 0.0 3.0 4 4
+ 1.125 1 2 cbr 500 ------- 2 1.0 3.0 25 150
- 1.125 1 2 cbr 500 ------- 2 1.0 3.0 25 150
+ 1.125 0 2 cbr 500 ------- 0 0.0 3.0 125 151
- 1.125 0 2 cbr 500 ------- 0 0.0 3.0 125 151
r 1.12504 0 2 cbr 500 ------- 0 0.0 3.0 65 65
+ 1.12504 2 3 cbr 500 ------- 0 0.0 3.0 65 65
- 1.12504 2 3 cbr 500 ------- 0 0.0 3.0 65 65
r 1.12904 2 3 cbr 500 ------- 0 0.0 3.0 5 5
+ 1.13 1 2 cbr 500 ------- 2 1.0 3.0 26 152
- 1.13 1 2 cbr 500 ------- 2 1.0 3.0 26 152
+ 1.13 0 2 cbr 500 ------- 0 0.0 3.0 126 153
- 1.13 0 2 cbr 500 ------- 0 0.0 3.0 126 153
r 1.13004 0 2 cbr 500 ------- 0 0.0 3.0 66 66
+ 1.13004 2 3 cbr 500 ------- 0 0.0 3.0 66 66
- 1.13004 2 3 cbr 500 ------- 0 0.0 3.0 66 66
r 1.13404 2 3 cbr 500 ------- 0 0.0 3.0 6 6
+ 1.135 1 2 cbr 500 ------- 2 1.0 3.0 27 154
- 1.135 1 2 cbr 500 ------- 2 1.0 3.0 27 154
+ 1.135 0 2 cbr 500 ------- 0 0.0 3.0 127 155
- 1.135 0 2 cbr 500 ------- 0 0.0 3.0 127 155
r 1.13504 0 2 cbr 500 ------- 0 0.0 3.0 67 67
+ 1.13504 2 3 cbr 500 ------- 0 0.0 3.0 67 67
- 1.13504 2 3 cbr 500 ------- 0 0.0 3.0 67 67
r 1.13904 2 3 cbr 500 ------- 0 0.0 3.0 7 7
+ 1.14 1 2 cbr 500 ------- 2 1.0 3.0 28 156
- 1.14 1 2 cbr 500 ------- 2 1.0 3.0 28 156
+ 1.14 0 2 cbr 500 ------- 0 0.0 3.0 128 157
- 1.14 0 2 cbr 500 ------- 0 0.0 3.0 128 157
r 1.14004 0 2 cbr 500 ------- 0 0.0 3.0 68 68
+ 1.14004 2 3 cbr 500 ------- 0 0.0 3.0 68 68
- 1.14004 2 3 cbr 500 ------- 0 0.0 3.0 68 68
r 1.14404 2 3 cbr 500 ------- 0 0.0 3.0 8 8
+ 1.145 1 2 cbr 500 ------- 2 1.0 3.0 29 158
- 1.145 1 2 cbr 500 ------- 2 1.0 3.0 29 158
+ 1.145 0 2 cbr 500 ------- 0 0.0 3.0 129 159
- 1.145 0 2 cbr 500 ------- 0 0.0 3.0 129 159
r 1.14504 0 2 cbr 500 ------- 0 0.0 3.0 69 69
+ 1.14504 2 3 cbr 500 ------- 0 0.0 3.0 69 69
- 1.14504 2 3 cbr 500 ------- 0 0.0 3.0 69 69
r 1.14904 2 3 cbr 500 ------- 0 0.0 3.0 9 9
+ 1.15 1 2 cbr 500 ------- 2 1.0 3.0 30 160
- 1.15 1 2 cbr 500 ------- 2 1.0 3.0 30 160
+ 1.15 0 2 cbr 500 ------- 0 0.0 3.0 130 161
- 1.15 0 2 cbr 500 ------- 0 0.0 3.0 130 161
r 1.15004 0 2 cbr 500 ------- 0 0.0 3.0 70 70
+ 1.15004 2 3 cbr 500 ------- 0 0.0 3.0 70 70
- 1.15004 2 3 cbr 500 ------- 0 0.0 3.0 70 70
r 1.15404 2 3 cbr 500 ------- 0 0.0 3.0 10 10
+ 1.155 1 2 cbr 500 ------- 2 1.0 3.0 31 162
- 1.155 1 2 cbr 500 ------- 2 1.0 3.0 31 162
+ 1.155 0 2 cbr 500 ------- 0 0.0 3.0 131 163
- 1.155 0 2 cbr 500 ------- 0 0.0 3.0 131 163
r 1.15504 0 2 cbr 500 ------- 0 0.0 3.0 71 71
+ 1.15504 2 3 cbr 500 ------- 0 0.0 3.0 71 71
- 1.15504 2 3 cbr 500 ------- 0 0.0 3.0 71 71
r 1.15904 2 3 cbr 500 ------- 0 0.0 3.0 11 11
+ 1.16 1 2 cbr 500 ------- 2 1.0 3.0 32 164
- 1.16 1 2 cbr 500 ------- 2 1.0 3.0 32 164
+ 1.16 0 2 cbr 500 ------- 0 0.0 3.0 132 165
- 1.16 0 2 cbr 500 ------- 0 0.0 3.0 132 165
r 1.16004 0 2 cbr 500 ------- 0 0.0 3.0 72 72
+ 1.16004 2 3 cbr 500 ------- 0 0.0 3.0 72 72
- 1.16004 2 3 cbr 500 ------- 0 0.0 3.0 72 72
r 1.16404 2 3 cbr 500 ------- 0 0.0 3.0 12 12
+ 1.165 1 2 cbr 500 ------- 2 1.0 3.0 33 166
- 1.165 1 2 cbr 500 ------- 2 1.0 3.0 33 166
+ 1.165 0 2 cbr 500 ------- 0 0.0 3.0 133 167
- 1.165 0 2 cbr 500 ------- 0 0.0 3.0 133 167
r 1.16504 0 2 cbr 500 ------- 0 0.0 3.0 73 73
+ 1.16504 2 3 cbr 500 ------- 0 0.0 3.0 73 73
- 1.16504 2 3 cbr 500 ------- 0 0.0 3.0 73 73
r 1.16904 2 3 cbr 500 ------- 0 0.0 3.0 13 13
+ 1.17 1 2 cbr 500 ------- 2 1.0 3.0 34 168
- 1.17 1 2 cbr 500 ------- 2 1.0 3.0 34 168
+ 1.17 0 2 cbr 500 ------- 0 0.0 3.0 134 169
- 1.17 0 2 cbr 500 ------- 0 0.0 3.0 134 169
r 1.17004 0 2 cbr 500 ------- 0 0.0 3.0 74 74
+ 1.17004 2 3 cbr 500 ------- 0 0.0 3.0 74 74
- 1.17004 2 3 cbr 500 ------- 0 0.0 3.0 74 74
r 1.17404 2 3 cbr 500 ------- 0 0.0 3.0 14 14
+ 1.175 1 2 cbr 500 ------- 2 1.0 3.0 35 170
- 1.175 1 2 cbr 500 ------- 2 1.0 3.0 35 170
+ 1.175 0 2 cbr 500 ------- 0 0.0 3.0 135 171
- 1.175 0 2 cbr 500 ------- 0 0.0 3.0 135 171
r 1.17504 0 2 cbr 500 ------- 0 0.0 3.0 75 75
+ 1.17504 2 3 cbr 500 ------- 0 0.0 3.0 75 75
- 1.17504 2 3 cbr 500 ------- 0 0.0 3.0 75 75
r 1.17904 2 3 cbr 500 ------- 0 0.0 3.0 15 15
+ 1.18 1 2 cbr 500 ------- 2 1.0 3.0 36 172
- 1.18 1 2 cbr 500 ------- 2 1.0 3.0 36 172
+ 1.18 0 2 cbr 500 ------- 0 0.0 3.0 136 173
- 1.18 0 2 cbr 500 ------- 0 0.0 3.0 136 173
r 1.18004 0 2 cbr 500 ------- 0 0.0 3.0 76 76
+ 1.18004 2 3 cbr 500 ------- 0 0.0 3.0 76 76
- 1.18004 2 3 cbr 500 ------- 0 0.0 3.0 76 76
r 1.18404 2 3 cbr 500 ------- 0 0.0 3.0 16 16
+ 1.185 1 2 cbr 500 ------- 2 1.0 3.0 37 174
- 1.185 1 2 cbr 500 ------- 2 1.0 3.0 37 174
+ 1.185 0 2 cbr 500 ------- 0 0.0 3.0 137 175
- 1.185 0 2 cbr 500 ------- 0 0.0 3.0 137 175
r 1.18504 0 2 cbr 500 ------- 0 0.0 3.0 77 77
+ 1.18504 2 3 cbr 500 ------- 0 0.0 3.0 77 77
- 1.18504 2 3 cbr 500 ------- 0 0.0 3.0 77 77
r 1.18904 2 3 cbr 500 ------- 0 0.0 3.0 17 17
+ 1.19 1 2 cbr 500 ------- 2 1.0 3.0 38 176
- 1.19 1 2 cbr 500 ------- 2 1.0 3.0 38 176
+ 1.19 0 2 cbr 500 ------- 0 0.0 3.0 138 177
- 1.19 0 2 cbr 500 ------- 0 0.0 3.0 138 177
r 1.19004 0 2 cbr 500 ------- 0 0.0 3.0 78 78
+ 1.19004 2 3 cbr 500 ------- 0 0.0 3.0 78 78
- 1.19004 2 3 cbr 500 ------- 0 0.0 3.0 78 78
r 1.19404 2 3 cbr 500 ------- 0 0.0 3.0 18 18
+ 1.195 1 2 cbr 500 ------- 2 1.0 3.0 39 178
- 1.195 1 2 cbr 500 ------- 2 1.0 3.0 39 178
+ 1.195 0 2 cbr 500 ------- 0 0.0 3.0 139 179
- 1.195 0 2 cbr 500 ------- 0 0.0 3.0 139 179
r 1.19504 0 2 cbr 500 ------- 0 0.0 3.0 79 79
+ 1.19504 2 3 cbr 500 ------- 0 0.0 3.0 79 79
- 1.19504 2 3 cbr 500 ------- 0 0.0 3.0 79 79
r 1.19904 2 3 cbr 500 ------- 0 0.0 3.0 19 19
+ 1.2 1 2 cbr 500 ------- 2 1.0 3.0 40 180
- 1.2 1 2 cbr 500 ------- 2 1.0 3.0 40 180
+ 1.2 0 2 cbr 500 ------- 0 0.0 3.0 140 181
- 1.2 0 2 cbr 500 ------- 0 0.0 3.0 140 181
r 1.20004 0 2 cbr 500 ------- 0 0.0 3.0 80 80
+ 1.20004 2 3 cbr 500 ------- 0 0.0 3.0 80 80
- 1.20004 2 3 cbr 500 ------- 0 0.0 3.0 80 80
r 1.20404 2 3 cbr 500 ------- 0 0.0 3.0 20 20
+ 1.205 1 2 cbr 500 ------- 2 1.0 3.0 41 182
- 1.205 1 2 cbr 500 ------- 2 1.0 3.0 41 182
+ 1.205 0 2 cbr 500 ------- 0 0.0 3.0 141 183
- 1.205 0 2 cbr 500 ------- 0 0.0 3.0 141 183
r 1.20504 0 2 cbr 500 ------- 0 0.0 3.0 81 81
+ 1.20504 2 3 cbr 500 ------- 0 0.0 3.0 81 81
- 1.20504 2 3 cbr 500 ------- 0 0.0 3.0 81 81
r 1.20904 2 3 cbr 500 ------- 0 0.0 3.0 21 21
+ 1.21 1 2 cbr 500 ------- 2 1.0 3.0 42 184
- 1.21 1 2 cbr 500 ------- 2 1.0 3.0 42 184
+ 1.21 0 2 cbr 500 ------- 0 0.0 3.0 142 185
- 1.21 0 2 cbr 500 ------- 0 0.0 3.0 142 185
r 1.21004 0 2 cbr 500 ------- 0 0.0 3.0 82 82
+ 1.21004 2 3 cbr 500 ------- 0 0.0 3.0 82 82
- 1.21004 2 3 cbr 500 ------- 0 0.0 3.0 82 82
r 1.21404 2 3 cbr 500 ------- 0 0.0 3.0 22 22
+ 1.215 1 2 cbr 500 ------- 2 1.0 3.0 43 186
- 1.215 1 2 cbr 500 ------- 2 1.0 3.0 43 186
+ 1.215 0 2 cbr 500 ------- 0 0.0 3.0 143 187
- 1.215 0 2 cbr 500 ------- 0 0.0 3.0 143 187
r 1.21504 0 2 cbr 500 ------- 0 0.0 3.0 83 83
+ 1.21504 2 3 cbr 500 ------- 0 0.0 3.0 83 83
- 1.21504 2 3 cbr 500 ------- 0 0.0 3.0 83 83
r 1.21904 2 3 cbr 500 ------- 0 0.0 3.0 23 23
+ 1.22 1 2 cbr 500 ------- 2 1.0 3.0 44 188
- 1.22 1 2 cbr 500 ------- 2 1.0 3.0 44 188
+ 1.22 0 2 cbr 500 ------- 0 0.0 3.0 144 189
- 1.22 0 2 cbr 500 ------- 0 0.0 3.0 144 189
r 1.22004 0 2 cbr 500 ------- 0 0.0 3.0 84 84
+ 1.22004 2 3 cbr 500 ------- 0 0.0 3.0 84 84
- 1.22004 2 3 cbr 500 ------- 0 0.0 3.0 84 84
r 1.22404 2 3 cbr 500 ------- 0 0.0 3.0 24 24
+ 1.225 1 2 cbr 500 ------- 2 1.0 3.0 45 190
- 1.225 1 2 cbr 500 ------- 2 1.0 3.0 45 190
+ 1.225 0 2 cbr 500 ------- 0 0.0 3.0 145 191
- 1.225 0 2 cbr 500 ------- 0 0.0 3.0 145 191
r 1.22504 0 2 cbr 500 ------- 0 0.0 3.0 85 85
+ 1.22504 2 3 cbr 500 ------- 0 0.0 3.0 85 85
- 1.22504 2 3 cbr 500 ------- 0 0.0 3.0 85 85
r 1.22904 2 3 cbr 500 ------- 0 0.0 3.0 25 25
+ 1.23 1 2 cbr 500 ------- 2 1.0 3.0 46 192
- 1.23 1 2 cbr 500 ------- 2 1.0 3.0 46 192